     224
 i =      530, time =      530.000, E =     -4021.4618677351
 Cu         0.0024540000        0.0078800000        1.7141800000
 Cu         1.2808500000        2.2199250000        1.7277410000
 Cu         0.0416603827        0.0478379649        7.8980993776
 Cu         1.3360121709        2.1684160771        7.9362112990
 Cu         1.3172469885        0.7467735836        5.8300456239
 Cu        -0.0166817536        2.8893698425        5.8477592987
 Cu         0.0033740000        1.4870630000        3.8189320000
 Cu         1.2823840000        3.7053060000        3.8078120000
 Cu         2.5589400000        0.0067290000        1.7092980000
 Cu         3.8391770000        2.2200140000        1.7320810000
 Cu         2.5524217802       -0.1206620385        7.7816752678
 Cu         3.9340289449        2.2923625209        7.8284619108
 Cu         3.9740416407        0.6579171215        5.9328482111
 Cu         2.5788942108        2.8855367716        5.8049631628
 Cu         2.5574060000        1.4880370000        3.8156780000
 Cu         3.8393810000        3.7055710000        3.8156780000
 Cu         5.1146080000        0.0073490000        1.7109250000
 Cu         6.3954580000        2.2222270000        1.7372350000
 Cu         5.1724855644        0.0198883596        8.0637897685
 Cu         6.5271049440        2.1692814097        7.9930194790
 Cu         6.4079800528        0.7935305381        5.8774489048
 Cu         5.1603783635        2.8846689915        5.8690590920
 Cu         5.1138930000        1.4871510000        3.8173050000
 Cu         6.3999570000        3.7092900000        3.8224580000
 Cu         7.6702760000        0.0082340000        1.7158070000
 Cu         8.9519450000        2.2216070000        1.7326240000
 Cu         7.6872815795        8.8124649971        7.9098403572
 Cu         8.9172296843        2.2725230167        7.8671641782
 Cu         8.9654842734        0.7029410518        5.8417354967
 Cu         7.8513865011        2.9436929524        5.8457732537
 Cu         7.6719120000        1.4916670000        3.8202890000
 Cu         8.9542960000        3.7088470000        3.8143220000
 Cu         0.0016360000        4.4379910000        1.7128240000
 Cu         1.2819750000        6.6471140000        1.7261140000
 Cu        10.2832448057        4.4122866413        7.7461234982
 Cu         1.2601863682        6.6316694853        7.7714673261
 Cu         1.3378373091        5.1225196942        5.7932609083
 Cu        -0.1632003418        7.4410343742        5.7374095202
 Cu         0.0029650000        5.9166420000        3.8197460000
 Cu         1.2883140000        8.1312550000        3.8078120000
 Cu         2.5585310000        4.4337410000        1.7190620000
 Cu         3.8385630000        6.6445460000        1.7347930000
 Cu         3.8809473545        6.5384271704        7.8515226881
 Cu         3.8372293322        5.0969980268        5.7948233635
 Cu         2.5560878751        7.2018455201        5.8060345051
 Cu         2.5576110000        5.9146060000        3.8192040000
 Cu         3.8414260000        8.1322290000        3.8067270000
 Cu         5.1151190000        4.4341830000        1.7293690000
 Cu         6.3944360000        6.6463170000        1.7385910000
 Cu         2.6238266579        4.4308174433        7.9667171812
 Cu         6.4121560221        6.6450294956        8.0820170904
 Cu         6.5405257783        5.1694314019        5.8845229186
 Cu         5.1708130783        7.3073741163        5.9138842076
 Cu         5.1140970000        5.9151370000        3.8257130000
 Cu         6.3981170000        8.1359470000        3.8107960000
 Cu         7.6704810000        4.4362200000        1.7266570000
 Cu         8.9506150000        6.6487960000        1.7307250000
 Cu         7.7680812060        4.4877599685        7.9610442605
 Cu         9.0276487043        6.6721188512        7.9505510243
 Cu         8.9507261923        5.1530770547        5.8338509237
 Cu         7.6279560352        7.3936329829        6.0816281935
 Cu         7.6717080000        5.9204490000        3.8232720000
 Cu         8.9521490000        8.1351500000        3.8124230000
 Zn         5.1541929473        4.4753391793        7.8951327152
  O         0.2985062645        8.9408926972       11.1957858230
  H        -0.1046788377        0.5225644257       12.0545981711
  H         1.1327977685        8.4596759172       11.5002532292
  O         0.7202402853        8.2868438764       25.4687587513
  H        -0.2567914059        7.9975370413       25.4418328542
  H         1.0307284681        7.6359758198       26.2520927059
  O         2.2832808708        7.3346997817       23.3559990995
  H         2.8922293119        7.2294926141       24.1363366660
  H         1.5846979292        7.8609160844       23.8228120376
  O         8.4207284321        5.0122025009       16.7138617819
  H         8.5493930656        5.8971578681       17.1668096250
  H         9.1988827149        4.7820975346       16.1674062755
  O         2.8167982263        0.9129321147       21.7485122915
  H         2.8888900871        0.6749393946       20.7606799366
  H         2.6024324760        0.1374792094       22.2554020098
  O         6.0869567393        6.8950629711       10.4561342393
  H         7.0382781191        6.8738128824       10.8351861223
  H         5.7825497153        7.8290360223       10.4868580467
  O         4.8482015004        6.2884101938       13.7025925610
  H         4.1704959618        6.9598494812       13.5145873300
  H         4.8357966328        5.9112169628       14.5472105339
  O         4.6546806089        0.0929163913       11.0045122234
  H         4.1837112523        1.0325024372       11.0301422169
  H         3.9845552308        8.2741428273       11.2759717215
  O         8.7677532356        2.7965188319       25.8199660857
  H         8.0110636752        2.1989875788       25.6059860583
  H         8.4286354845        3.0301066417       26.7025237456
  O         8.6449411110        6.8954810827       11.4648087872
  H         9.2620932457        6.0967169810       11.2971065466
  H         9.1208602024        7.6697991081       11.0935564858
  O         2.9280610772        3.3691966075       24.9983820321
  H         2.8635231566        4.1430020818       25.6006634952
  H         2.3390070025        2.7044909257       25.4306275643
  O         4.8609271950        1.9646644190       18.0174771545
  H         5.7248031969        1.5323621226       18.1978004212
  H         4.6444649236        1.7854657180       17.1297217393
  O         2.4365292020        2.4366157889       14.0539719676
  H         2.9002060803        2.0566780293       14.8297267191
  H         1.5839124056        1.8059489296       14.0073829936
  O         6.0763863881        5.6997008168       25.5539399936
  H         6.0888490414        5.4207701373       26.4679414295
  H         6.2458782850        4.8274168545       25.0909877446
  O         5.6915430512        6.4816390643       18.4790784870
  H         5.3757059325        5.5836552935       18.6204796592
  H         5.4777339391        6.8025039191       19.3719015102
  O         2.8860365781        0.5046750523       19.0443657521
  H         2.0604030048        0.8946709097       18.6524681304
  H         3.6046530648        1.1406145364       18.9078660418
  O         1.0847820766        2.3143160895       10.0233016718
  H         1.9979561309        2.4970704666       10.4361082673
  H         0.7514270051        1.3709900185       10.3661607897
  O         8.8886838548        4.8651794994       24.0146309733
  H         9.8486720328        4.9923950823       23.7910811202
  H         8.7632564362        4.0879078925       24.6240742801
  O         5.3593128929        2.1993234585       22.1022517946
  H         4.4663130731        1.7577561537       21.9621033995
  H         5.3462474518        2.8748363574       21.3449571241
  O         3.3423044434        6.5252300099       25.7890292647
  H         3.3187583984        7.0170061824       26.6377828817
  H         4.3328728978        6.3532414339       25.7552624108
  O         4.7031832642        3.7562990619       19.9689714108
  H         3.7734674048        4.1516103859       20.1095625428
  H         4.5628770347        3.0227184313       19.3167484258
  O         9.7386027115        8.3315963229       15.3684708166
  H         8.8441934440        8.0033524902       15.0409496182
  H         9.6909538954        8.0038168570       16.2872325676
  O         7.6239748449        7.6636386267       13.9047902529
  H         8.1234422587        7.2984211278       13.1150087056
  H         6.8293145713        7.0427727783       13.9832664594
  O         1.9180392466        4.9888005164       20.3255498832
  H         1.4172705074        5.7769643873       20.3194121001
  H         1.9417949749        4.6622838191       21.2833621376
  O        10.2513989465        6.9895824754       20.2986652273
  H        10.1048680965        7.5816297725       21.0675519052
  H         9.4706863725        6.4110605552       20.2471636528
  O         0.7197112726        4.5059957903       14.2071348575
  H         1.5094613620        3.7607379530       14.3613217051
  H         1.1125911647        5.3489292967       14.5691168375
  O         5.5837119580        2.6617679582       24.8257775239
  H         5.7127135869        2.5599090210       23.8288193910
  H         4.6478928999        2.8431666027       25.1014332060
  O         6.8966683244        0.0450278896       21.0308529694
  H         6.3144421190        0.8657626083       21.3200754593
  H         7.8670768471        0.0597749065       21.4820112635
  O         5.6328407111        1.1582605696       13.5869290175
  H         6.3567227740        9.4130197328       13.9344296585
  H         5.3659907804        0.6990238651       12.7612755953
  O         8.3959058016        4.8411092558       21.2491144304
  H         8.5185412694        4.8416485055       22.2609446946
  H         7.4699665605        5.2254112362       21.1425791557
  O         5.7490506949        4.6037572517       15.6028990854
  H         6.5481928325        4.9462659733       16.0470873194
  H         5.5152678187        3.8004459382       16.1297938142
  O         0.6903945043        1.4866052008       18.1135283413
  H        10.3421827507        2.1706722085       18.5391174744
  H        10.2685333121        0.7751142942       17.9096369074
  O         2.7188039331        7.6185238766       12.6201707311
  H         2.5306453068        6.8795404922       11.9054591610
  H         2.1752597362        7.3387389269       13.4192201935
  O         8.8485528607        3.3396592447       18.9847290051
  H         8.7824329665        3.8792014688       19.7993165584
  H         8.6570041108        3.9168528832       18.2204420572
  O         5.9177904134        6.5218305349       21.3014514379
  H         6.0970757093        7.4997680300       21.3213008242
  H         5.1647085764        6.2245286082       21.8735352521
  O         9.0379499608        7.8291902656       18.0401488220
  H         8.4686770325        8.6602059247       18.1927146046
  H         9.4230626040        7.6318330119       19.0015511899
  O         3.4634468983        2.4455985865       11.3337697172
  H         3.1938396786        2.5249594986       12.2988253345
  H         4.2441294361        3.1023444042       11.3415208618
  O         7.9903484535        3.2477633937       13.1487287966
  H         7.4508736545        2.6182741558       12.6878596648
  H         7.3855111798        3.5841747312       13.8933905510
  O         0.3744641562        4.8739840351       11.6119164728
  H         0.4718211996        3.9825137027       11.2476268025
  H         0.3485919237        4.6752779709       12.6584944352
  O         3.3681679287        7.6093505877       17.2732834422
  H         3.1505540359       -0.5344329613       17.9912544414
  H         4.1752177743        7.1909801660       17.6310397954
  O         7.4354732671        1.0372159405       18.5186619050
  H         7.2283829329        0.5570904481       19.3997873309
  H         7.9606327402        1.8803257493       18.8007999406
  O         3.9291880401        0.9706176155       15.7584728325
  H         4.5067849680        0.7869931553       14.9557329754
  H         3.7367441609        0.0832037303       16.2520654200
  O        10.0871670243        2.2775057300       21.8373885501
  H         0.7957375886        2.3287286357       21.8986544886
  H         9.7294891482        3.2096131022       21.6890497482
  O         1.3111613354        4.8642739827       23.0288880045
  H         1.6149279824        5.8398318827       23.2057451042
  H         1.6727001626        4.3185720696       23.7754623772
  O         1.6610748253        6.9371139754       15.1748878710
  H         0.7794176162        7.4636788347       15.2024209805
  H         2.2129309483        7.1271714613       16.0255700443
  O         9.1823078421       -0.1614693248       22.2858649429
  H         8.9633790814       -0.3490411122       23.2592329845
  H         9.5212132711        0.7982660817       22.3228496640
  O         1.1150078311        2.0238794174       26.4356087554
  H         0.9809200564        1.0473082075       26.3529773902
  H         0.2439461471        2.3577349767       26.0698127590
  O         0.0085927453        1.6139788204       13.5689739071
  H         9.9136680672        1.1105641376       14.3538669943
  H         9.4512490011        2.2334370360       13.4668474221
  O         6.7690809033        0.5552046436       25.9248884487
  H         6.1345100887        1.1317674744       25.4893803129
  H         6.4010214340        0.3999713589       26.8637268678
  O         4.9879722717        4.5345147450       11.4764797127
  H         5.7074848386        4.8778546355       10.8786616778
  H         5.0819186138        5.1623159339       12.2825996401
  O         2.9837931077        6.0922072940       10.6086755070
  H         2.1898243766        5.5873236910       10.6032495176
  H         3.6747243679        5.4892265238       11.0387376129
  O         8.4786604213        7.7988799857       24.7950034153
  H         8.2882829293        6.8505202976       24.6257988238
  H         7.7110660718        8.2227093312       25.3690932883
  C         7.1488225045        2.2134872965        9.8054097727
  O         7.2042654626        1.5532546314       10.7743378112
  O         7.8782258677        3.9684094278        9.8834439460
  H         8.6684038422        3.9531036797       10.5334915317
