     224
 i =      710, time =      710.000, E =     -4021.4612539745
 Cu         0.0024540000        0.0078800000        1.7141800000
 Cu         1.2808500000        2.2199250000        1.7277410000
 Cu         0.0475040366       -0.0001134274        8.0848099577
 Cu         1.2122653002        2.3281554808        8.0851280221
 Cu         1.1952568760        0.8910523542        5.9837304664
 Cu        -0.0051065586        3.0969846769        5.9211021127
 Cu         0.0033740000        1.4870630000        3.8189320000
 Cu         1.2823840000        3.7053060000        3.8078120000
 Cu         2.5589400000        0.0067290000        1.7092980000
 Cu         3.8391770000        2.2200140000        1.7320810000
 Cu         2.4498198844        0.0637086089        7.9517857828
 Cu         3.9516931164        2.2513239793        8.0111866813
 Cu         3.7935578685        0.7727193173        5.8377270849
 Cu         2.5541827512        2.9736735131        5.8884744061
 Cu         2.5574060000        1.4880370000        3.8156780000
 Cu         3.8393810000        3.7055710000        3.8156780000
 Cu         5.1146080000        0.0073490000        1.7109250000
 Cu         6.3954580000        2.2222270000        1.7372350000
 Cu         5.0104934850       -0.0003162627        7.8873612829
 Cu         6.4631072743        2.1346126628        8.0905523118
 Cu         6.4419723071        0.9294847878        5.8425195390
 Cu         5.0513738166        3.0120030753        5.9207970434
 Cu         5.1138930000        1.4871510000        3.8173050000
 Cu         6.3999570000        3.7092900000        3.8224580000
 Cu         7.6702760000        0.0082340000        1.7158070000
 Cu         8.9519450000        2.2216070000        1.7326240000
 Cu         7.5988849227        8.8403991933        7.7881999393
 Cu         8.8823032666        2.1337622838        7.8881388597
 Cu         8.9967347608        0.6232108294        5.8929018917
 Cu         7.7218490926        2.9795697889        5.8771262041
 Cu         7.6719120000        1.4916670000        3.8202890000
 Cu         8.9542960000        3.7088470000        3.8143220000
 Cu         0.0016360000        4.4379910000        1.7128240000
 Cu         1.2819750000        6.6471140000        1.7261140000
 Cu        10.3315488154        4.6414402017        7.8541160012
 Cu         1.3883664822        6.7105763984        8.1036157468
 Cu         1.3266028237        5.1921226007        5.8853932145
 Cu        -0.0926406016        7.4326583422        5.7670454344
 Cu         0.0029650000        5.9166420000        3.8197460000
 Cu         1.2883140000        8.1312550000        3.8078120000
 Cu         2.5585310000        4.4337410000        1.7190620000
 Cu         3.8385630000        6.6445460000        1.7347930000
 Cu         3.8729483196        6.6370128531        7.9232316466
 Cu         3.8690381515        5.2613200812        5.8257396750
 Cu         2.5896504666        7.5105736589        5.9049447873
 Cu         2.5576110000        5.9146060000        3.8192040000
 Cu         3.8414260000        8.1322290000        3.8067270000
 Cu         5.1151190000        4.4341830000        1.7293690000
 Cu         6.3944360000        6.6463170000        1.7385910000
 Cu         2.6064081248        4.3828557270        7.9805192923
 Cu         6.3317891695        6.6990184465        7.9400730787
 Cu         6.4616790164        5.1962657907        5.8885782434
 Cu         5.1528590551        7.4371444688        5.8520283326
 Cu         5.1140970000        5.9151370000        3.8257130000
 Cu         6.3981170000        8.1359470000        3.8107960000
 Cu         7.6704810000        4.4362200000        1.7266570000
 Cu         8.9506150000        6.6487960000        1.7307250000
 Cu         7.7842186537        4.5394006220        8.0728361669
 Cu         9.1573910043        6.6403258915        7.8676441756
 Cu         8.8804878327        5.1891739969        5.8102688184
 Cu         7.7148946880        7.4515874438        5.8674757436
 Cu         7.6717080000        5.9204490000        3.8232720000
 Cu         8.9521490000        8.1351500000        3.8124230000
 Zn         5.0591390696        4.5206678002        8.0402871836
  O         0.5245706570        9.1325213599       11.5628976232
  H         0.0488483721        0.5210997864       12.3713685297
  H         1.3430237380        8.5899497907       11.8782597191
  O         0.5265778212        8.0440936464       26.1071301133
  H        -0.2320803580        7.5954283395       25.5316630444
  H         0.6521494737        7.5863801528       26.9528772674
  O         2.3503056453        7.4367357295       24.4083470799
  H         2.9634404021        7.0082285721       25.0127423513
  H         1.7209074742        7.8099683215       25.0685237409
  O         8.5727704630        5.1355085270       16.5552891820
  H         8.5782115595        6.0549890329       16.8468079178
  H         9.1352417253        5.0769008367       15.7738172943
  O         3.1910243948        0.0969998959       21.9190216139
  H         3.0541380252       -0.3491293016       21.0423357559
  H         2.9130544471       -0.5476324695       22.6604915699
  O         6.3720568654        7.0832963878        9.8157900875
  H         7.2600191547        7.0364844083       10.2040401776
  H         5.9261031478        7.8513285513       10.2339217965
  O         5.5268803581        5.5988105380       14.0825948248
  H         4.6058551043        5.9982329448       14.2649803997
  H         5.6601405958        4.9904699230       14.8859813721
  O         4.9171160878       -0.1878432245       11.3582160464
  H         4.4108359442        0.6083018176       11.2120616907
  H         4.0974670654        8.1729445257       11.6995960815
  O         8.5876461652        2.8648086974       25.8726873690
  H         7.9426360468        2.1325518593       25.8231471754
  H         8.2477618024        3.5329185582       26.4798988062
  O         8.9299861164        6.9930255581       11.0608766623
  H         9.4402348546        6.1608504917       10.8626462256
  H         9.5904974237        7.6997584766       10.9070680782
  O         3.0549449693        3.4480480972       25.7118493701
  H         3.2143573584        4.3478859690       26.1644474418
  H         2.2532329185        3.0002493777       26.1360371300
  O         4.9538930530        2.2269002742       17.7764054798
  H         5.7009030277        1.6916499177       18.1859906066
  H         4.6191399062        1.9422038060       16.9208191006
  O         1.9323780001        2.4684095609       13.8393538025
  H         2.4813923959        1.8937349124       14.4986544950
  H         0.9886601008        2.0892864163       13.9106387281
  O         6.7532556342        4.9135386950       25.7564237537
  H         6.7430298847        5.1061414775       26.7594759698
  H         6.2368723937        4.1069151751       25.6252085053
  O         5.3017526667        5.8791595738       17.8305501039
  H         5.1580079554        5.2056258157       18.4926533749
  H         6.0035121995        6.4738702195       18.1656045835
  O         2.8990866538        0.3948059174       19.0300843907
  H         2.0136375563        0.8684691706       19.0718597319
  H         3.5673679686        1.0621369609       18.8426638072
  O         1.2050385976        2.4748994036       10.2087039735
  H         2.1767895457        2.5497898592       10.4837788310
  H         0.9496407807        1.6297281896       10.7470157928
  O         9.1325669978        4.6963242444       23.7441471981
  H        10.1253329559        4.5621790293       23.5368524621
  H         8.9079510495        3.9858305249       24.4100867501
  O         4.6881375548        2.2783422737       22.4328324492
  H         4.1870264819        1.4794436286       22.2814272932
  H         4.5942997854        2.9577354350       21.7201973766
  O         4.3596524614        6.0882289470       25.7141475140
  H         4.5688387633        6.9920787709       26.0894148881
  H         5.2020061654        5.7249932873       25.2573048755
  O         4.6496604187        4.0176319272       19.8930674128
  H         3.8121155131        4.5145010414       19.9742712460
  H         4.5846393703        3.2388242105       19.2325300571
  O         9.6059110044        8.2066930871       15.3417992878
  H         8.9445724315        7.7726149866       14.6872215632
  H         9.2605719448        8.1747448511       16.2325304806
  O         7.7675412332        7.1626996163       13.5910800623
  H         7.8534088662        6.9445221839       12.5876069159
  H         6.8239380262        6.8032006588       13.8660204838
  O         2.8076909747        6.1370208071       21.0974997128
  H         1.8754503863        6.0704376050       20.8468925773
  H         2.7742590492        5.6728836804       21.9289766471
  O         9.8511599587        6.9269178580       20.2399537530
  H         9.7110109230        7.7493342878       20.7292588379
  H         9.3194142165        6.2056522019       20.6520258833
  O         0.2087164807        4.8526453714       14.3535381645
  H         0.8764161965        4.0684956405       14.3378171988
  H         0.7067997362        5.7002765634       14.2676984047
  O         5.4526469071        2.3529774459       25.0305338873
  H         5.0864377992        2.3909118163       24.1531058243
  H         4.4977456303        2.5992342433       25.4590971208
  O         6.8304848541        0.3602360373       21.5002580758
  H         6.2659405006        0.9497520144       21.9542597822
  H         7.7737285068        0.3403608201       21.8424598969
  O         6.0708428124        0.8827732600       13.6165045783
  H         6.8097552224        9.1463712091       13.8257476674
  H         5.6158943329        0.5295785579       12.7820125962
  O         7.8234906198        5.2278009056       21.0815000433
  H         7.8247651327        5.0078464357       22.0317319509
  H         6.9661904224        5.7028410492       20.8509000820
  O         6.6306272846        3.7573105421       15.7222720838
  H         7.1791334751        4.2557839337       16.3605993648
  H         5.9917649554        3.2777198590       16.3025523200
  O         0.5452757139        1.3417105938       18.2352541535
  H        10.1324223532        2.0508232353       18.5563312110
  H        10.1966759337        0.5550671538       18.0698968256
  O         2.5039347055        7.6639941371       12.0497629348
  H         2.4522591132        6.8468032473       11.4749660075
  H         2.2893348507        7.4103023341       12.9993489120
  O         8.4422091561        3.4172373576       18.9009698745
  H         7.9833071155        3.9206485759       19.6286663321
  H         8.5641091503        4.0924111449       18.1546347324
  O         5.7551124369        6.8237909018       20.5796684253
  H         6.0397231470        7.6346781345       21.0355106807
  H         4.9664582443        6.4998568205       21.0445937112
  O         8.6055980304        8.0527995660       17.8820645962
  H         7.9871030545        8.8071458839       18.2333989636
  H         9.1296700988        7.8151034474       18.6452931215
  O         3.4519261865        2.0874024994       11.6611966672
  H         2.9942781783        2.3660146816       12.5543260587
  H         4.1093831765        2.8332301047       11.5356552247
  O         7.8237877082        3.3442062367       13.3845791712
  H         7.1376840191        2.6048776577       13.3045299284
  H         7.5595316656        3.6759256463       14.3191468834
  O         0.1810000147        4.4690624629       11.4693437313
  H         0.3141018555        3.5734465654       11.2316791268
  H        -0.0948764492        4.5238530164       12.4155096627
  O         3.2235084217        7.7312559373       16.8134975564
  H         2.8907295684       -0.6307352481       17.6288934161
  H         3.8667758504        7.0540641803       17.2426007626
  O         7.0855352790        1.1206442713       18.8925029489
  H         7.0344854183        0.8970897503       19.8709770201
  H         7.5205577858        2.0199307640       18.8288197221
  O         4.0856934428        1.1130483093       15.4954720998
  H         4.8906324876        0.9441396401       14.9486541225
  H         3.9014557243        0.2845948738       16.0106815720
  O        11.2413245664        2.0095186387       22.3385987632
  H         1.7639752486        1.5503837415       21.9974894356
  H        11.5092024979        2.9073658666       22.5914336736
  O         1.7220163437        4.9088364035       23.5141681181
  H         1.8044997616        5.9000062781       23.8766674303
  H         2.2613310652        4.4435243620       24.2484481292
  O         1.6475389003        7.1436048299       14.5390733150
  H         0.9218371060        7.7039492507       14.9026953858
  H         2.2775302980        7.2404206150       15.3243441107
  O         9.3247425857        0.1155054590       22.2230081266
  H         9.3716295180       -0.1890147321       23.1371489920
  H         9.7871791089        0.9740163294       22.1769794212
  O         0.8585872570        1.9804526710       26.5360893045
  H         0.7530932125        0.9841283630       26.3547562369
  H        -0.0799937340        2.3518294135       26.3611668086
  O        -0.6702600302        1.4233040466       13.7342583226
  H         9.4277047508        1.0002769143       14.5819203165
  H         8.9780459680        2.2036640134       13.7344131049
  O         5.9106536395       -0.3872439699       25.3760841379
  H         5.5055955498        0.5001457049       25.3446335278
  H         6.1516660182       -0.5684930908       26.3384922359
  O         5.3641478132        4.2453446309       11.4535903930
  H         6.1983483168        4.1908315821       10.9600365196
  H         5.5641159598        4.6239043529       12.3171722360
  O         2.6338060891        5.2728831092       10.5564972987
  H         2.0510327575        4.5914419728       10.9877214904
  H         3.6221803848        5.1592156330       10.8702992267
  O         8.8088103057        7.3507331789       24.4106640305
  H         8.8738051211        6.3786089959       24.1012530530
  H         7.8631577627        7.3953384796       24.7112369874
  C         8.1046210133        1.8888804101        9.6972291548
  O         7.9578912936        1.3725724873       10.7812111599
  O         7.9491270586        3.9520163550        9.9302681815
  H         8.7292558259        4.2416684168       10.5205796273
