     224
 i =        0, time =        0.000, E =     -4021.4851999150
 Cu         0.0024540000        0.0078800000        1.7141800000
 Cu         1.2808500000        2.2199250000        1.7277410000
 Cu         0.0258660000        0.1092610000        7.9099100000
 Cu         1.1673650000        2.2798680000        8.1084510000
 Cu         1.2360700000        0.8677120000        5.8396030000
 Cu         0.0194250000        2.9551780000        5.9144630000
 Cu         0.0033740000        1.4870630000        3.8189320000
 Cu         1.2823840000        3.7053060000        3.8078120000
 Cu         2.5589400000        0.0067290000        1.7092980000
 Cu         3.8391770000        2.2200140000        1.7320810000
 Cu         2.5422750000        0.0925260000        7.9676820000
 Cu         3.6897030000        2.2683570000        7.9175040000
 Cu         3.6835690000        0.6993050000        5.8661840000
 Cu         2.6136380000        3.1532460000        5.9136490000
 Cu         2.5574060000        1.4880370000        3.8156780000
 Cu         3.8393810000        3.7055710000        3.8156780000
 Cu         5.1146080000        0.0073490000        1.7109250000
 Cu         6.3954580000        2.2222270000        1.7372350000
 Cu         5.0103240000        0.0299270000        7.9801580000
 Cu         6.2898460000        2.2714560000        7.9370330000
 Cu         6.3106000000        0.7325080000        5.8019020000
 Cu         5.0526510000        2.9219750000        5.7831870000
 Cu         5.1138930000        1.4871510000        3.8173050000
 Cu         6.3999570000        3.7092900000        3.8224580000
 Cu         7.6702760000        0.0082340000        1.7158070000
 Cu         8.9519450000        2.2216070000        1.7326240000
 Cu         7.7062650000        8.7798250000        7.9177750000
 Cu         8.7148520000        2.2471960000        7.9440850000
 Cu         9.0907850000        0.8869250000        5.8122090000
 Cu         7.6802960000        3.0397350000        5.8564200000
 Cu         7.6719120000        1.4916670000        3.8202890000
 Cu         8.9542960000        3.7088470000        3.8143220000
 Cu         0.0016360000        4.4379910000        1.7128240000
 Cu         1.2819750000        6.6471140000        1.7261140000
 Cu        10.1654190000        4.5404340000        7.8996030000
 Cu         1.2535520000        6.7631920000        8.0661390000
 Cu         1.2762490000        5.3121660000        5.9613860000
 Cu         0.0086900000        7.3952930000        5.8697100000
 Cu         0.0029650000        5.9166420000        3.8197460000
 Cu         1.2883140000        8.1312550000        3.8078120000
 Cu         2.5585310000        4.4337410000        1.7190620000
 Cu         3.8385630000        6.6445460000        1.7347930000
 Cu         3.9835380000        6.6772180000        7.8448140000
 Cu         3.7370400000        5.2085720000        5.9009020000
 Cu         2.4861460000        7.3874130000        5.8905950000
 Cu         2.5576110000        5.9146060000        3.8192040000
 Cu         3.8414260000        8.1322290000        3.8067270000
 Cu         5.1151190000        4.4341830000        1.7293690000
 Cu         6.3944360000        6.6463170000        1.7385910000
 Cu         2.5040380000        4.5500850000        8.0452540000
 Cu         6.4192800000        6.7389320000        8.1987710000
 Cu         6.3004780000        5.2198170000        6.0590290000
 Cu         5.1109280000        7.3573970000        5.7926800000
 Cu         5.1140970000        5.9151370000        3.8257130000
 Cu         6.3981170000        8.1359470000        3.8107960000
 Cu         7.6704810000        4.4362200000        1.7266570000
 Cu         8.9506150000        6.6487960000        1.7307250000
 Cu         7.6564740000        4.6038300000        7.9392030000
 Cu         8.9969300000        6.6088630000        7.9899230000
 Cu         8.9072660000        5.1711180000        5.9193450000
 Cu         7.6921560000        7.3802410000        5.8669980000
 Cu         7.6717080000        5.9204490000        3.8232720000
 Cu         8.9521490000        8.1351500000        3.8124230000
 Zn         5.0671690000        4.3033180000        7.9918210000
  O         0.4695840000        8.4747980000       11.2625960000
  H         0.4425930000        0.1065160000       12.1603710000
  H         1.1159390000        7.7198880000       11.3409820000
  O         1.0149270000        8.2222760000       25.6961540000
  H         0.0611390000        8.1214260000       25.3327040000
  H         1.0096100000        7.7130710000       26.5765700000
  O         2.5352200000        8.0023370000       23.3803830000
  H         3.5056730000        7.8854620000       23.7674300000
  H         2.0119610000        8.0425350000       24.2816840000
  O         8.7202710000        5.1989210000       16.4498890000
  H         8.5074090000        6.1356950000       16.7921820000
  H         9.5578130000        5.2006030000       15.9435010000
  O         2.3543600000        1.6485630000       22.4592830000
  H         2.4865550000        1.3666460000       21.5219090000
  H         2.3751140000        0.7079820000       22.8913540000
  O         6.0553090000        6.5972640000       10.1765870000
  H         6.9120720000        6.7279520000       10.6794490000
  H         5.6071960000        7.3991890000       10.5679730000
  O         5.5062860000        5.3907910000       13.8894680000
  H         4.9033820000        5.8294280000       14.4867190000
  H         5.8913180000        4.6535020000       14.4831930000
  O         4.7598390000        0.0782710000       11.0928050000
  H         4.1492680000        0.4501480000       10.4315440000
  H         4.1400660000        8.5855640000       11.7689840000
  O         9.0039840000        3.0422150000       26.0273270000
  H         8.4450440000        2.2233780000       25.8537390000
  H         8.5055690000        3.5816120000       26.7309000000
  O         8.4783740000        6.7996710000       11.2712750000
  H         8.9896710000        6.0050960000       11.0247260000
  H         9.1244220000        7.5704300000       11.1326760000
  O         2.8017580000        4.0051090000       25.5098180000
  H         2.9294540000        4.5198920000       26.3273080000
  H         2.2716480000        3.1724600000       25.8569940000
  O         5.2928110000        3.1224340000       17.3086060000
  H         5.7068790000        2.4002850000       17.8985340000
  H         4.8353940000        2.4992750000       16.6836900000
  O         2.3817600000        2.4256080000       13.8411890000
  H         3.1798370000        2.1725550000       14.3993830000
  H         1.7761980000        1.6694590000       13.8577340000
  O         6.7501250000        5.7947200000       25.5046650000
  H         6.8781290000        5.5827500000       26.4358010000
  H         6.4676390000        4.9321440000       25.1317220000
  O         5.2914820000        6.5506910000       19.3772850000
  H         4.6580090000        5.7734700000       19.5137140000
  H         5.0454950000        7.0661830000       20.1980300000
  O         2.7423570000        1.1939000000       19.6664170000
  H         1.7482870000        1.2589790000       19.3466360000
  H         3.1297400000        1.9540330000       19.2820830000
  O         0.8495040000        2.2843840000       10.3697040000
  H         1.8498100000        2.4093160000       10.6319840000
  H         0.8231260000        1.2691610000       10.4540560000
  O         9.1818800000        4.9995240000       23.7690570000
  H        10.0608290000        5.3714890000       23.5629220000
  H         9.3266510000        4.4024850000       24.5483040000
  O         4.8522630000        2.9172820000       22.2083940000
  H         4.0022480000        2.5083060000       22.3274650000
  H         4.6199760000        3.6499670000       21.5807660000
  O         4.3765450000        7.3960900000       25.2486230000
  H         4.2720570000        7.7883310000       26.1485670000
  H         4.9226030000        6.5428110000       25.4726590000
  O         3.9090060000        4.1466870000       19.5939990000
  H         2.9675890000        4.5546000000       19.5782670000
  H         4.2290140000        3.9265720000       18.6449610000
  O         9.7846810000        8.0757390000       15.4658630000
  H         9.1665440000        7.4232730000       15.0229430000
  H         9.4473950000        8.1800410000       16.3902180000
  O         7.5907350000        7.0860160000       13.8175920000
  H         8.0709510000        7.1374590000       12.9710800000
  H         6.8899880000        6.3635140000       13.8433590000
  O         1.5469780000        5.0265290000       20.3824670000
  H         1.1165520000        5.9612670000       20.4014530000
  H         1.5720270000        4.6558930000       21.2767160000
  O         9.8665750000        7.5090700000       20.1440550000
  H         9.5013770000        8.1601190000       20.8695980000
  H         9.2909690000        6.7061710000       20.1893510000
  O         0.6275430000        4.6893610000       14.6885150000
  H         1.1098040000        3.8055350000       14.4620370000
  H         1.3854410000        5.3219050000       14.7354380000
  O         5.5823520000        3.5316750000       24.7745110000
  H         5.5333790000        3.3707050000       23.8325260000
  H         4.6270300000        3.6259720000       25.0272980000
  O         6.2037600000        0.7472940000       21.1362180000
  H         5.7204770000        1.5654230000       21.4055510000
  H         7.0347590000        0.5877420000       21.6304010000
  O         6.2393390000        0.9306650000       13.4411230000
  H         6.3947430000        8.8289660000       13.3299190000
  H         5.6146590000        1.0889780000       12.6708270000
  O         7.7960300000        5.6357870000       20.5731430000
  H         7.4551660000        5.7444280000       21.5088900000
  H         7.0228990000        5.9145170000       20.0724500000
  O         7.0052120000        3.6883940000       15.1930040000
  H         7.7058560000        4.2357610000       15.6182950000
  H         6.6046390000        3.4047940000       16.0970170000
  O         0.1456910000        1.3502660000       18.6804930000
  H         9.9964180000        2.2371910000       18.9788470000
  H         9.8525680000        0.7634090000       19.2441110000
  O         3.6106730000        7.5065020000       12.9086970000
  H         2.9206620000        7.0195210000       12.4109880000
  H         3.2037610000        7.6018620000       13.7926390000
  O         8.5809190000        3.5139660000       18.8209900000
  H         8.4393180000        4.1701510000       19.5785390000
  H         8.7196580000        4.0832910000       18.0110950000
  O         5.9848670000        6.9158390000       22.3480780000
  H         5.7759920000        7.8547380000       22.1544190000
  H         6.0751440000        6.7731090000       23.3255950000
  O         8.2344310000        7.5289030000       17.6647330000
  H         7.5345030000        8.2244010000       17.6641900000
  H         8.5717180000        7.6765910000       18.5814930000
  O         3.3648900000        2.4231290000       11.2506620000
  H         3.1044870000        2.4623530000       12.2143460000
  H         4.1229920000        3.0584180000       11.1188440000
  O         8.2295240000        2.4001970000       13.0247840000
  H         7.6510560000        1.6211150000       13.1137480000
  H         7.8637130000        2.9372920000       13.7232040000
  O         0.1744200000        4.6956480000       11.9273830000
  H         0.2518150000        3.8042070000       11.5457610000
  H         0.4430020000        4.7161900000       12.8520100000
  O         3.7657690000        8.2761980000       17.6126560000
  H         3.3784880000        0.0866830000       18.2880210000
  H         4.4680490000        7.7955920000       18.0805300000
  O         6.9618620000        1.2561450000       18.6075320000
  H         6.7144440000        1.1245720000       19.6162400000
  H         7.4625270000        2.1344820000       18.4472340000
  O         4.3236870000        1.4009120000       15.3733730000
  H         5.0764730000        1.2341870000       14.7989060000
  H         4.1908790000        0.6204140000       16.0300230000
  O         9.6531000000        2.9229490000       22.0971900000
  H         0.3815560000        2.9346360000       22.3469930000
  H         9.2259450000        3.7797690000       22.3594700000
  O         1.8175030000        5.2810880000       23.2583290000
  H         2.0750430000        6.2198980000       23.2404280000
  H         2.1480410000        4.9494980000       24.1409150000
  O         2.2912780000        7.3063090000       15.3288910000
  H         1.3152020000        7.4968510000       15.4257210000
  H         2.6886810000        7.4692260000       16.1824550000
  O         8.7431730000        0.4964550000       22.1576740000
  H         8.7679140000        0.0731360000       23.0185610000
  H         9.0886380000        1.4121560000       22.2523340000
  O         1.2498720000        2.0404500000       26.3690780000
  H         1.2227780000        1.1490100000       26.0454990000
  H         0.3662200000        2.4355250000       26.0975760000
  O         0.2611180000        0.9180920000       13.5371390000
  H        10.1545820000        0.3424800000       14.2645810000
  H         9.7106600000        1.6310320000       13.2946590000
  O         7.0625680000        0.9765300000       25.6560120000
  H         6.5375710000        1.7512720000       25.2225840000
  H         6.7679150000        0.9931760000       26.5993530000
  O         4.6811150000        4.8154450000       11.4622220000
  H         5.4020020000        5.1782020000       10.8831440000
  H         5.0475390000        4.8482060000       12.3334160000
  O         2.2339220000        6.1378200000       10.9189460000
  H         1.6068900000        5.3948640000       11.1589860000
  H         3.1944580000        5.7867510000       11.1269810000
  O         8.7959280000        7.8803270000       24.4940580000
  H         8.4461680000        7.0018130000       24.3706480000
  H         8.1208440000        8.4133490000       24.9649150000
  C         7.4703990000        2.1340390000        9.5668600000
  O         7.8071750000        1.0056600000       10.0743330000
  O         7.5865430000        3.2408140000       10.3694320000
  H         7.8202610000        2.9856360000       11.2634100000
