     224
 i =      895, time =      895.000, E =     -4021.4867700401
 Cu         0.0024540000        0.0078800000        1.7141800000
 Cu         1.2808500000        2.2199250000        1.7277410000
 Cu         0.0399455782        0.1041673962        7.7820300439
 Cu         1.2766343643        2.2907796322        8.0512002692
 Cu         1.3140735433        0.8299122874        5.8399278364
 Cu        -0.0131524745        2.9362193072        5.9156090274
 Cu         0.0033740000        1.4870630000        3.8189320000
 Cu         1.2823840000        3.7053060000        3.8078120000
 Cu         2.5589400000        0.0067290000        1.7092980000
 Cu         3.8391770000        2.2200140000        1.7320810000
 Cu         2.5301731804       -0.0044133205        7.8849709098
 Cu         3.8376764779        2.2714212492        7.8793003242
 Cu         3.7966903571        0.7242942615        5.7710928495
 Cu         2.4944607328        3.0482708449        5.8733152020
 Cu         2.5574060000        1.4880370000        3.8156780000
 Cu         3.8393810000        3.7055710000        3.8156780000
 Cu         5.1146080000        0.0073490000        1.7109250000
 Cu         6.3954580000        2.2222270000        1.7372350000
 Cu         5.0001219018        0.0711263410        7.8541436147
 Cu         6.2544731726        2.1911499994        7.9971312353
 Cu         6.4208563523        0.7558106969        5.8267287070
 Cu         5.0653216198        3.0164880667        5.8232377554
 Cu         5.1138930000        1.4871510000        3.8173050000
 Cu         6.3999570000        3.7092900000        3.8224580000
 Cu         7.6702760000        0.0082340000        1.7158070000
 Cu         8.9519450000        2.2216070000        1.7326240000
 Cu         7.8176696755        9.0839409185        7.9483507275
 Cu         8.9136772472        2.3498161299        7.8444229588
 Cu         8.9419378721        0.8390749336        5.7928920630
 Cu         7.5635937926        3.0951132219        5.8293508285
 Cu         7.6719120000        1.4916670000        3.8202890000
 Cu         8.9542960000        3.7088470000        3.8143220000
 Cu         0.0016360000        4.4379910000        1.7128240000
 Cu         1.2819750000        6.6471140000        1.7261140000
 Cu        10.3028037741        4.5616942282        7.9738706222
 Cu         1.0982460857        6.7461049661        7.7548176596
 Cu         1.1499398017        5.1195998642        5.8580249376
 Cu        -0.0468879318        7.4408530932        5.6732868890
 Cu         0.0029650000        5.9166420000        3.8197460000
 Cu         1.2883140000        8.1312550000        3.8078120000
 Cu         2.5585310000        4.4337410000        1.7190620000
 Cu         3.8385630000        6.6445460000        1.7347930000
 Cu         3.8333831262        6.7740852854        8.0653689371
 Cu         3.8228870843        5.2860702642        5.7630003693
 Cu         2.5261792900        7.4282950961        5.8760023523
 Cu         2.5576110000        5.9146060000        3.8192040000
 Cu         3.8414260000        8.1322290000        3.8067270000
 Cu         5.1151190000        4.4341830000        1.7293690000
 Cu         6.3944360000        6.6463170000        1.7385910000
 Cu         2.4673617349        4.6740735467        7.9860077407
 Cu         6.2406876536        6.8122271521        8.0546793884
 Cu         6.4234897849        5.2852604876        5.9052530517
 Cu         5.2932380499        7.4418654104        5.8992143634
 Cu         5.1140970000        5.9151370000        3.8257130000
 Cu         6.3981170000        8.1359470000        3.8107960000
 Cu         7.6704810000        4.4362200000        1.7266570000
 Cu         8.9506150000        6.6487960000        1.7307250000
 Cu         7.5909111689        4.5742064136        8.1522106543
 Cu         8.9386451778        6.6444548112        7.9575892014
 Cu         8.8791898985        5.2090248830        5.8330213247
 Cu         7.7088352713        7.5094995843        5.9658976551
 Cu         7.6717080000        5.9204490000        3.8232720000
 Cu         8.9521490000        8.1351500000        3.8124230000
 Zn         4.9762969528        4.4632379275        7.7939933284
  O         0.3903912235        8.5612531092       11.1076706317
  H         0.2633626750        0.1933942320       11.9885305625
  H         1.3426795136        8.2508607636       11.2144139685
  O         0.7894091664        8.0317463427       25.4489509754
  H        -0.1160171735        7.7983886889       25.1304255511
  H         0.7611530621        7.4843366737       26.3520730318
  O         2.9393166913        7.2416147031       23.7277502203
  H         3.7074834825        7.1621253108       24.4352128430
  H         2.2231013481        7.6811863802       24.2488307931
  O         9.0886721309        5.0232975792       16.7399154809
  H         9.1308670401        6.0136651135       16.8694320727
  H         9.6902505206        4.8973259429       15.9172177562
  O         3.0986508812        0.5714554429       22.0108399881
  H         3.0185806175        0.1783987639       21.1089339950
  H         3.0434324133       -0.1757190755       22.6933008816
  O         6.0323097809        7.0715020149       10.2390385339
  H         6.9039891003        7.4976063451       10.4595872267
  H         5.4138900622        7.8417560678       10.4611168274
  O         5.8773427409        5.1987724285       14.0299873824
  H         5.2662481397        5.8979011782       14.4370845541
  H         6.1358255726        4.5727319761       14.7358772456
  O         4.5906101714        0.1464031223       11.4614812318
  H         3.9485164098        0.8582746273       11.4065150466
  H         4.0908362308        8.3110950618       11.9285864472
  O         9.0084779125        2.3986122352       25.3180366645
  H         8.7804377987        1.6844885718       24.6800564036
  H         8.5176172976        2.2352288955       26.1562010968
  O         8.9724506404        6.4980521199       11.0366508960
  H         9.4449148116        5.6667511300       11.3021399491
  H         9.7170164067        7.1334765581       10.9206048415
  O         3.1824644205        3.4564593213       25.6175204124
  H         3.3784254487        4.0553437631       26.3852637217
  H         2.4891079980        2.8134220075       26.0348979084
  O         4.2977654978        1.8836676112       17.9341435196
  H         5.2665243787        1.6214529804       17.9590394975
  H         4.1423106666        1.7358388354       16.9512183931
  O         2.4645766346        2.3449355515       14.0123455695
  H         3.0950440614        1.6730215257       14.5057771220
  H         1.6539140427        1.8488201268       13.5675917723
  O         6.6514004158        5.0381100078       25.5843018487
  H         6.9082182204        5.0034045908       26.6092150725
  H         6.2382818369        4.1623933222       25.4782420122
  O         5.3497963197        5.8206318384       18.0536035982
  H         5.0623616434        4.9769348540       18.3935968942
  H         5.5202262897        6.3188140124       18.8465412949
  O         2.7464718352       -0.1933186849       19.3307479433
  H         1.9078909145        0.2023703580       19.3335832462
  H         3.2972140860        0.4382019827       18.7350085379
  O         1.0938087712        2.2325299849       10.0608307436
  H         2.0104696970        2.2244776315       10.5787791127
  H         0.6351909662        1.3871842955       10.3675280388
  O         8.9570564282        4.9983298715       23.6699981801
  H         9.9815851150        4.8604597597       23.6667985118
  H         8.6461175419        4.4357774326       24.4238101136
  O         5.2922142117        2.4360280650       21.9051099842
  H         4.4795740717        1.9094809844       21.9801300592
  H         5.1548484217        3.1424292245       21.1526557305
  O         4.6560261361        7.1236536283       25.6020972506
  H         5.5018624521        7.6297707795       25.3919533513
  H         5.0943681546        6.2557297439       25.9836213178
  O         4.5748424728        3.9025101582       19.6948818162
  H         3.7357094520        4.3792231380       20.0455951919
  H         4.1851512634        3.2009948401       19.0706813197
  O         9.6603883438        8.0799299230       15.0482799799
  H         8.8321119901        7.8015982409       14.5157703778
  H         9.3729683061        8.3036854876       15.9467907276
  O         7.7262851735        7.0433098580       13.3916811555
  H         8.2289819166        6.9513592935       12.5337363903
  H         7.0581396729        6.3261383053       13.5452844086
  O         2.5000262666        5.5575953601       20.6007260210
  H         2.0026936217        6.0437981769       19.9361743411
  H         1.9454498855        5.2207613185       21.3085217284
  O         9.9529324116        7.1626754041       20.0438681141
  H         9.6906508343        7.8410810222       20.6846471292
  H         9.5349221384        6.3053746917       20.4112063399
  O         0.7178705266        4.5821947868       14.8286154700
  H         1.3488084216        3.8116132181       14.6809201416
  H         1.2961377431        5.3760969824       14.8538309545
  O         5.4848979827        2.3574729747       24.7899947440
  H         5.3394644623        2.6732431444       23.9048255671
  H         4.6434878165        2.5712406924       25.2707217753
  O         6.8475743113        0.7118013559       20.7877072608
  H         6.2507486538        1.3653055257       21.3494351410
  H         7.7230186371        0.6884112294       21.2803275398
  O         6.2881154303        0.5294739835       13.3781409709
  H         6.8227864321        8.5759998518       13.4609403395
  H         5.6092956322        0.3580444411       12.6394113658
  O         8.0901163892        5.0940228505       20.6929033055
  H         8.0294700033        4.8625230138       21.6245086397
  H         7.2442381036        5.5927236944       20.5164298260
  O         6.9396712423        3.7507501000       16.0045895130
  H         7.8001177711        4.2773681452       16.2330416476
  H         6.2743340306        4.1759437959       16.5683017543
  O         0.3534123539        1.0478473859       18.6554962880
  H         9.9150846750        1.7501390279       18.8463676401
  H        10.2001591692        0.3882044489       18.0378137377
  O         2.6995735357        7.6689487491       12.3003345627
  H         2.5793204129        6.7975674138       11.8442095899
  H         2.3682184101        7.4254024300       13.2349468677
  O         8.9623223857        3.0922264507       18.9744185471
  H         8.3920270245        3.5179866627       19.6690593638
  H         9.2171881861        3.9594260841       18.4762841604
  O         5.8590687783        6.9579955679       20.6256063878
  H         6.0930161901        7.9403742939       20.7947878847
  H         5.0471660514        6.6870131145       21.0601065578
  O         8.8923170424        7.7987337074       17.6892782112
  H         8.1544600656        8.4379096692       17.9401507370
  H         9.3368481955        7.6416439035       18.5583485205
  O         3.1699543580        2.3821522397       11.4703663260
  H         2.9163908454        2.5121958357       12.4368411533
  H         4.0058826262        2.9207750389       11.2701294234
  O         8.1338104103        2.5846117387       13.3911700708
  H         7.5367318291        1.8862366650       13.0825998512
  H         7.7159095726        2.7719592806       14.2925236473
  O         0.3436297473        4.3998418751       11.6102810726
  H         0.5047660497        3.5617855390       11.1593957708
  H         0.3638366066        4.2182927369       12.5872387877
  O         3.5121942167        7.3390772130       17.0667135360
  H         3.1104898960       -1.3609614222       17.9516180302
  H         4.2701030243        6.6170174109       17.3214541987
  O         7.1002190566        1.0144040125       18.1965281704
  H         7.0895392307        1.0377689680       19.2481166001
  H         7.6684471482        1.8116149562       17.9426445762
  O         4.3519162716        0.7441085507       15.1270286118
  H         5.1018130367        0.5284911185       14.5275951840
  H         4.2150463824       -0.0879086355       15.6387131914
  O        11.0500140688        1.7533402861       23.2095481991
  H         1.4697201617        1.5101384875       22.4958270536
  H        11.1481881763        2.7137376517       23.4161308863
  O         1.6349658267        4.9165072825       23.3552728937
  H         2.1094289727        5.8081719221       23.4435890903
  H         2.1087414574        4.4271596538       24.0435417021
  O         1.9319399049        6.9717240685       14.8338664415
  H         1.0405017342        7.3075786488       14.9104554479
  H         2.4134263192        7.2117285356       15.6565716386
  O         8.8695371695        0.3724261267       22.2914905773
  H         8.6831880114       -0.2214366093       23.0766656689
  H         9.5188339992        1.0830033862       22.5558552484
  O         1.3371429710        1.8307592256       26.4283062447
  H         1.3393694950        0.8812656715       26.1755071927
  H         0.4757669706        2.0956635409       25.9969548537
  O         0.1183312062        1.2321898916       13.3305225675
  H        10.0394330295        0.5905261089       14.1466143697
  H         9.5163634859        1.8541894464       13.3411645182
  O         6.8569391657        0.3887519217       25.6773519194
  H         6.2238336969        1.1183988233       25.3405658157
  H         6.9952332767        0.6181972849       26.5851667656
  O         5.0130827068        4.1959615195       11.2902853252
  H         6.0252314404        4.1528635417       10.9675045477
  H         5.0734611063        4.4069694954       12.2525244971
  O         2.7056064123        5.6612433283       10.5440125836
  H         2.2393196335        4.8757124639       10.9427761727
  H         3.6009942068        5.3392245998       10.5397182860
  O         8.5930539312        7.5113855808       24.2659477944
  H         8.6038660311        6.5213703465       24.1518052873
  H         7.8493215695        7.9064210624       24.7865455401
  C         7.1807869655        1.4744039701        9.6529389850
  O         7.2695764210        1.0356110548       10.7757341844
  O         7.2336777014        3.7180311712        9.9737908786
  H         8.0672869171        3.9880754067       10.3484132963
