     224
 i =     1630, time =     1630.000, E =     -4021.5207438516
 Cu         0.0024540000        0.0078800000        1.7141800000
 Cu         1.2808500000        2.2199250000        1.7277410000
 Cu        -0.0061431957        0.1548362578        7.9197361744
 Cu         1.3209321865        2.3721788906        7.8674265286
 Cu         1.3729069197        0.7620447928        5.8627664299
 Cu        -0.0080010052        2.8509984772        5.8269973713
 Cu         0.0033740000        1.4870630000        3.8189320000
 Cu         1.2823840000        3.7053060000        3.8078120000
 Cu         2.5589400000        0.0067290000        1.7092980000
 Cu         3.8391770000        2.2200140000        1.7320810000
 Cu         2.5261212862        0.0402952225        7.8618959186
 Cu         3.7399404167        2.2917694569        7.7380033744
 Cu         3.9245920826        0.7306697481        5.8190447831
 Cu         2.4998751000        3.0665771745        5.8092796567
 Cu         2.5574060000        1.4880370000        3.8156780000
 Cu         3.8393810000        3.7055710000        3.8156780000
 Cu         5.1146080000        0.0073490000        1.7109250000
 Cu         6.3954580000        2.2222270000        1.7372350000
 Cu         5.0661145082        0.2537354529        7.8914168711
 Cu         6.3198339692        2.3208052355        7.9199424706
 Cu         6.4585247552        0.7162061431        5.8609578332
 Cu         5.1078174614        2.9210276549        5.8417160831
 Cu         5.1138930000        1.4871510000        3.8173050000
 Cu         6.3999570000        3.7092900000        3.8224580000
 Cu         7.6702760000        0.0082340000        1.7158070000
 Cu         8.9519450000        2.2216070000        1.7326240000
 Cu         7.7009908040        8.9263260445        7.8796306363
 Cu         8.8989215326        2.3170815109        7.8935165766
 Cu         9.0614850544        0.7668671016        5.8307842889
 Cu         7.6996626305        2.9911019441        5.8834864814
 Cu         7.6719120000        1.4916670000        3.8202890000
 Cu         8.9542960000        3.7088470000        3.8143220000
 Cu         0.0016360000        4.4379910000        1.7128240000
 Cu         1.2819750000        6.6471140000        1.7261140000
 Cu        10.2684470594        4.5789810736        7.7808271018
 Cu         1.2144521821        6.8151676673        8.0313323178
 Cu         1.3208944987        5.1915666624        5.9586247062
 Cu         0.0223122768        7.3882825769        5.8404375753
 Cu         0.0029650000        5.9166420000        3.8197460000
 Cu         1.2883140000        8.1312550000        3.8078120000
 Cu         2.5585310000        4.4337410000        1.7190620000
 Cu         3.8385630000        6.6445460000        1.7347930000
 Cu         3.8051815047        6.7062468660        7.9469673810
 Cu         3.8544296120        5.2353194536        5.8962378182
 Cu         2.6809371042        7.3835202427        5.8480566318
 Cu         2.5576110000        5.9146060000        3.8192040000
 Cu         3.8414260000        8.1322290000        3.8067270000
 Cu         5.1151190000        4.4341830000        1.7293690000
 Cu         6.3944360000        6.6463170000        1.7385910000
 Cu         2.5378549450        4.6017601479        8.2186205397
 Cu         6.5239479939        6.7039771891        7.8564518296
 Cu         6.3994116509        5.1771859741        5.9146484578
 Cu         5.2392015608        7.4290939503        5.9089872003
 Cu         5.1140970000        5.9151370000        3.8257130000
 Cu         6.3981170000        8.1359470000        3.8107960000
 Cu         7.6704810000        4.4362200000        1.7266570000
 Cu         8.9506150000        6.6487960000        1.7307250000
 Cu         7.6798355418        4.6103354846        8.3150019704
 Cu         8.9654034306        6.8330198848        7.9549807171
 Cu         8.9570872074        5.2428226421        5.7806729664
 Cu         7.6603271415        7.4328110697        5.8029704328
 Cu         7.6717080000        5.9204490000        3.8232720000
 Cu         8.9521490000        8.1351500000        3.8124230000
 Zn         5.1555260284        4.3833779513        7.9169728771
  O         0.7467596711        8.9493219725       11.2884208799
  H         0.5135268260        0.6219216469       12.0908298221
  H         1.5659027076        8.3385545387       11.5301674909
  O         1.5394153410        8.2278982489       25.5295562860
  H         0.6324935981        7.9674026647       25.1553061474
  H         1.6024192117        7.8281026694       26.4251491684
  O         3.2284808136        7.7888816992       23.5079775475
  H         4.1699604404        7.5829991191       23.8010895171
  H         2.7127502918        7.8800364522       24.4165498128
  O         9.8959002806        4.5802510070       16.6771263510
  H        10.0341682382        5.5172144624       16.4285939265
  H        10.5908015186        4.0662067905       16.1846968715
  O         3.5705993844        0.5157641511       21.4670307692
  H         3.5734829315        0.1263528083       20.6164944054
  H         3.3759896987       -0.1767271169       22.1778600668
  O         5.2359707265        6.6828444681        9.5011504817
  H         5.4650974925        5.5118694930       10.6187668202
  H         5.2952756763        7.4848087818       10.0362582276
  O         5.8972913570        5.2035134285       13.8798690298
  H         5.2817257004        5.6267155874       14.5130999641
  H         6.5558314246        4.6882852401       14.4516458621
  O         5.1049650493       -0.2662971886       11.2104715522
  H         4.9127519373        0.6895976975       10.9187618852
  H         4.1896925537        8.2285296331       11.4335884462
  O         9.5096974916        2.8186806238       25.3802843539
  H         8.7324959917        2.1749780532       25.1209627120
  H         9.2428848935        3.2445715745       26.1917718018
  O         9.6245886065        6.7847469948       11.6831898991
  H        10.2647014574        6.1402765960       11.9652144617
  H        10.1102630234        7.5731391406       11.3488579883
  O         3.4852965922        3.8706514501       25.4012028071
  H         3.6324196741        4.4559344144       26.2084699399
  H         2.8045062517        3.1515859252       25.7451553112
  O         5.5577369593        2.3619435979       17.3420619016
  H         6.4521532303        2.0682578598       17.7575461880
  H         5.2427070409        1.8088842932       16.5681203840
  O         2.8956698201        1.9494037947       13.8359399286
  H         3.5167875213        1.4318771983       14.4562563205
  H         1.9565599982        1.5224031535       13.8673714387
  O         6.9133929005        5.2660509969       25.4859572278
  H         6.5422490283        5.1274630376       26.4557024110
  H         6.5984856576        4.4603902814       25.0126198744
  O         6.3132915327        6.0739404789       18.0374030799
  H         6.0351503641        5.1103648383       17.9613717055
  H         6.1624416386        6.3224476532       19.0003639237
  O         3.6301057761        0.4061981135       18.7866331085
  H         2.7591371411        0.9760596328       18.6654198547
  H         4.3544000714        1.1556462336       18.8206093172
  O         1.5813304459        2.3468731593       10.0506688076
  H         2.5484072254        2.2533275011       10.3369489934
  H         1.2079051727        1.4654417869       10.2766336565
  O        10.0096687878        4.9535840962       23.1839813969
  H        11.0507959718        4.9927205762       23.0392936028
  H         9.9149039394        4.1912117509       23.7748579873
  O         5.4821366421        2.2092428610       21.9237353053
  H         4.7593578655        1.3943385133       21.8186810461
  H         5.1657050496        2.7902307659       21.1465945788
  O         5.6656525835        7.4394453514       24.2815308950
  H         5.8810328931        8.2251071835       24.8442638188
  H         5.9483520525        6.7289583648       24.9731014241
  O         4.6382528353        3.8211264189       19.7541001739
  H         3.9995979938        4.5777643700       19.7096429310
  H         4.8164239877        3.4257858611       18.8810890773
  O        10.0972602072        7.2230216180       15.4344469378
  H         9.3523505666        7.0324249127       14.8351259136
  H         9.7375947605        7.6790527849       16.2482264608
  O         8.1749508172        7.1164289575       13.7035433048
  H         8.6210959231        6.9996937748       12.7505533686
  H         7.4337838381        6.4885867740       13.6158751824
  O         3.4059498484        5.9225928830       20.5380296034
  H         2.6217736634        6.4253462105       20.2066545891
  H         3.1175488888        5.5548098209       21.4335164640
  O        10.5338785138        6.8107871329       20.2883205478
  H        10.2632332785        7.6236964958       20.8868943541
  H         9.9260945325        6.0622778709       20.6268304987
  O         1.5658889773        4.2219547966       14.9410582677
  H         2.3187764622        3.5360835221       14.7710249811
  H         1.9237690371        5.1593684900       14.9765378262
  O         5.8265176612        2.6793381657       24.5905647397
  H         5.6562922655        2.5626239495       23.6567415222
  H         4.9432029415        2.8866556619       24.9825320900
  O         7.1055354976        0.4697469558       20.9339262954
  H         6.5300107920        1.2332443801       21.3234365342
  H         8.0116038123        0.4640652022       21.3030067386
  O         6.5446468689        0.5024534124       13.4972970440
  H         7.0985512178        8.5461448833       13.3502197204
  H         5.9375265571        0.4225735362       12.7274877344
  O         8.7077338522        4.8088836447       20.9945920198
  H         9.0038651686        4.7616308861       21.9647809404
  H         7.8644557433        5.3485744598       20.8627423388
  O         7.4823438495        3.6474285826       15.5757238071
  H         8.2852136902        4.0732727748       16.0781343645
  H         6.9289957326        3.1314692744       16.2204193653
  O         1.3626278280        1.5190886219       18.5106145325
  H        10.9708802272        2.0644113254       19.0183436693
  H        11.0850791484        0.6457596667       18.3862692069
  O         2.6916795699        7.1705925710       11.9848789064
  H         2.6137340704        6.3355789849       11.4584289566
  H         2.7878891411        7.0391503671       12.8852308991
  O         9.9782152175        3.3438555700       19.2737488768
  H         9.4184562388        3.8301935646       19.8721169649
  H        10.4167391044        4.0226022464       18.6272230267
  O         6.4695635878        6.6517134676       20.7077304825
  H         6.7894995650        7.5881729257       20.8325085976
  H         5.7122013458        6.5054262387       21.2849867452
  O         9.8099517972        8.3779325581       17.9454382702
  H         9.1040140850        9.0670449019       18.2116046685
  H         9.8152992782        7.7089315976       18.6605560795
  O         3.8622206185        2.2927383649       11.4075105507
  H         3.4017466434        2.0773555154       12.3325680520
  H         4.5369150316        3.0666854118       11.4329992906
  O         8.6707960140        2.5818184077       13.2523999834
  H         8.1312871480        1.8877977651       12.7739932914
  H         8.0297492287        2.7420271075       14.0574628513
  O         0.5490552461        4.4383495456       12.2424163145
  H        -0.1386498595        3.8663097470       11.8851419699
  H         0.5039067063        4.2631114330       13.1760010287
  O         4.2373918423        7.5034269930       16.9894749317
  H         4.0403897897       -0.6792381477       17.7437459885
  H         5.1171095200        7.0618602932       17.2864304273
  O         8.0229260288        1.5876939463       18.4991948195
  H         7.6375695980        1.3992576540       19.3785729315
  H         8.5088451536        2.4222719615       18.5462048935
  O         4.6993849786        0.7348087016       15.3354045071
  H         5.5166427608        0.5436231559       14.6881314552
  H         4.6667693402       -0.1476440674       15.9123237581
  O        11.4933026892        2.0572440067       21.8907249025
  H         2.0919706778        1.5689616401       21.7400344268
  H        11.5281493245        2.8367573059       21.2681603917
  O         2.4359298456        5.2301537540       23.0321135469
  H         2.5899535266        6.2572433869       23.2402805571
  H         2.7761366496        4.8186957939       23.9015367477
  O         2.5593825652        6.8165302397       14.7318724334
  H         1.6530846481        7.0525020792       15.1336645836
  H         3.2243507172        7.0465519333       15.4134383928
  O         9.7070702523        0.0959659206       21.8349325871
  H         9.5728400488       -0.4482199426       22.6325979639
  H        10.4622141323        0.8271724401       21.9941139316
  O         1.8399060831        2.1053624011       26.1797445551
  H         1.9943429817        1.1725654796       25.9214807750
  H         0.8602689310        2.1939143889       25.9853077550
  O         0.3738639329        0.9843024997       13.7926854995
  H        10.3531983855        0.1244917483       14.1724245072
  H         9.7989261665        1.6160544230       13.6951975715
  O         7.2020691134        0.6206028203       25.5170782840
  H         6.5093749946        1.2909957508       25.2510434922
  H         7.2372160755        0.6063005948       26.5246844862
  O         5.5065149149        4.6419563621       11.1289636081
  H         7.4041349621        4.5434671909       10.6988844239
  H         5.5334478210        4.8258251151       12.1081722609
  O         2.6699243567        4.8940026451       10.4648262681
  H         1.9164824418        4.5895932349       11.0032662174
  H         3.4625261413        4.6281809221       10.8623500800
  O         9.5339172327        7.1287807373       24.5306916839
  H         9.6915377418        6.2535067996       23.9971798620
  H         8.6222168526        7.2465535595       24.8406771264
  C         7.3655290802        1.8024370071        9.5438425524
  O         7.6123430257        1.7331086060       10.7089361576
  O         8.3092553604        4.5169573200       10.4117045599
  H         8.6506440477        5.4721869668       10.6786422511
