     224
 i =      160, time =      160.000, E =     -4021.4853893871
 Cu         0.0024540000        0.0078800000        1.7141800000
 Cu         1.2808500000        2.2199250000        1.7277410000
 Cu        -0.0030588120        0.0043383489        7.9470291448
 Cu         1.3103396043        2.2997228975        7.9001859507
 Cu         1.1425737164        0.7334134233        5.8279063595
 Cu        -0.0701862600        2.9062222691        5.8014184179
 Cu         0.0033740000        1.4870630000        3.8189320000
 Cu         1.2823840000        3.7053060000        3.8078120000
 Cu         2.5589400000        0.0067290000        1.7092980000
 Cu         3.8391770000        2.2200140000        1.7320810000
 Cu         2.5381708381        0.1498364117        7.7907429716
 Cu         3.9333165721        2.2565280979        7.9402819458
 Cu         3.8517617562        0.7965934688        5.8579173672
 Cu         2.5837475556        2.8433604614        5.7906351640
 Cu         2.5574060000        1.4880370000        3.8156780000
 Cu         3.8393810000        3.7055710000        3.8156780000
 Cu         5.1146080000        0.0073490000        1.7109250000
 Cu         6.3954580000        2.2222270000        1.7372350000
 Cu         5.1466175012        0.0577318119        7.9846476459
 Cu         6.4198637612        2.3757190180        8.1637941266
 Cu         6.3681085228        0.8522873405        5.7989575922
 Cu         5.2700327033        3.1106393914        5.9750405020
 Cu         5.1138930000        1.4871510000        3.8173050000
 Cu         6.3999570000        3.7092900000        3.8224580000
 Cu         7.6702760000        0.0082340000        1.7158070000
 Cu         8.9519450000        2.2216070000        1.7326240000
 Cu         7.6991158393        8.9912173547        8.0447785966
 Cu         8.9659626443        2.2735124749        7.8504523305
 Cu         8.9520195228        0.7615008837        5.8453733391
 Cu         7.6071038792        3.0950901441        5.8893132961
 Cu         7.6719120000        1.4916670000        3.8202890000
 Cu         8.9542960000        3.7088470000        3.8143220000
 Cu         0.0016360000        4.4379910000        1.7128240000
 Cu         1.2819750000        6.6471140000        1.7261140000
 Cu        10.1729915901        4.5589090586        7.8559600448
 Cu         1.1854340185        6.6385566735        7.8177350329
 Cu         1.3246949845        5.1647900188        5.8161167849
 Cu         0.0732660353        7.3681253054        5.7726447556
 Cu         0.0029650000        5.9166420000        3.8197460000
 Cu         1.2883140000        8.1312550000        3.8078120000
 Cu         2.5585310000        4.4337410000        1.7190620000
 Cu         3.8385630000        6.6445460000        1.7347930000
 Cu         3.6833355076        6.8145667735        7.9515460366
 Cu         3.7738165871        5.1507138437        5.8210364668
 Cu         2.6189622866        7.4900847198        5.8086713977
 Cu         2.5576110000        5.9146060000        3.8192040000
 Cu         3.8414260000        8.1322290000        3.8067270000
 Cu         5.1151190000        4.4341830000        1.7293690000
 Cu         6.3944360000        6.6463170000        1.7385910000
 Cu         2.4790071234        4.3923353819        7.7057587692
 Cu         6.2524334939        6.7314949847        7.9068514829
 Cu         6.3231144992        5.2781796291        5.9477150850
 Cu         5.1234372290        7.4251022141        5.7812486352
 Cu         5.1140970000        5.9151370000        3.8257130000
 Cu         6.3981170000        8.1359470000        3.8107960000
 Cu         7.6704810000        4.4362200000        1.7266570000
 Cu         8.9506150000        6.6487960000        1.7307250000
 Cu         7.6679487296        4.6304430556        7.8873754349
 Cu         8.8593743198        6.7463129418        7.9094527587
 Cu         8.9970750463        5.1932410744        5.8931633460
 Cu         7.6665959643        7.3883354483        5.8775256283
 Cu         7.6717080000        5.9204490000        3.8232720000
 Cu         8.9521490000        8.1351500000        3.8124230000
 Zn         4.9626895866        4.5220841949        8.0069944834
  O         0.3336279934        8.6719871148       10.9656210177
  H         0.3643326241        0.3411100126       11.9037044412
  H         1.1069294813        8.0448764485       10.9938460991
  O         0.7352770950        8.6681192353       25.5223746632
  H         0.0041614395        8.2144021668       25.0551457162
  H         0.9601822255        8.0581855993       26.2540762070
  O         2.7303945730        8.1673116383       23.5835981519
  H         3.3622548847        8.0431226821       24.4116167798
  H         1.9176681085        8.2684656838       24.0773753891
  O         9.3826037063        4.6646650268       16.8864960821
  H         9.4142761892        5.6343885086       17.0198593436
  H        10.0523495906        4.5244840097       16.1266258215
  O         2.4988912375        0.9538748405       21.4783246182
  H         2.7709482935        0.8131445209       20.4970613743
  H         2.6167356896        0.1361484290       22.0654656286
  O         6.1907768139        6.9658015912       10.2197071374
  H         7.1213786906        6.8792627594       10.5744305407
  H         5.6364122862        7.7407118637       10.4489700422
  O         5.3302498636        5.4934476688       13.6418368005
  H         4.4513756627        5.7444482545       13.8027524296
  H         5.7276377047        5.0672737109       14.4177622702
  O         4.3524053773       -0.0699034147       11.3593445371
  H         4.0915840761        0.6799251654       10.8299402711
  H         3.7311434504        8.3878673547       11.9904467887
  O         8.9813008017        3.5316426223       25.8073350246
  H         8.4631312033        2.7158061013       25.9273959814
  H         8.7482832784        3.9866986565       26.6906248808
  O         8.6551902704        6.7426884140       11.0082795168
  H         9.1998623887        5.8951274975       11.1334155476
  H         9.3456540501        7.4605277056       10.8810426901
  O         3.0455575054        4.4124571376       25.5273355267
  H         2.9874761685        5.3688919549       25.8551727153
  H         2.2450110177        3.8991954422       25.8254880287
  O         5.1319201854        2.8650285133       17.2286272126
  H         5.6950742223        2.2269095612       17.7468055809
  H         4.8580830640        2.1876887480       16.5109738482
  O         2.4635848136        2.5446939412       13.6575002221
  H         3.1798111735        2.0729639408       14.1149269854
  H         1.7094526750        1.8858401393       13.4205758546
  O         6.4543520274        5.7565417352       25.7776748388
  H         6.5867909227        5.3514798522       26.6492989320
  H         6.3538176989        4.9349582309       25.2529159986
  O         5.3925206519        6.8426216449       19.1996801248
  H         4.8482918850        6.2323966184       19.7099631164
  H         5.7254796921        7.6378655031       19.7004910770
  O         3.0451051270        1.0249819525       18.8672780340
  H         2.0866708770        0.9299558623       18.6680274604
  H         3.3197433895        1.9606825517       18.5862427289
  O         0.8764094246        2.2478236974        9.9223149627
  H         1.7334731569        2.3830785025       10.5048214373
  H         0.4749376823        1.3853252420       10.1044361282
  O         9.1055057651        5.3621173131       23.4886814860
  H        10.0771936696        5.4255995680       23.6103161127
  H         8.7630108562        4.7389289980       24.1448045726
  O         4.6857935223        2.4765375121       21.9811365039
  H         3.8610119337        1.9411012477       21.8929659185
  H         4.6131309123        3.2098317297       21.3133874225
  O         4.0614566608        7.2785637499       25.7941846260
  H         4.1414147039        7.9569100572       26.4869933538
  H         4.9715487490        6.8986303519       25.8083894832
  O         4.2262776850        4.2892877979       19.6082660187
  H         3.2655809644        4.4022234300       19.6271303049
  H         4.6228754991        4.0229820860       18.7173630339
  O         9.7520022216        8.5758314472       15.2173200923
  H         9.2024473909        7.8332593534       14.8110186292
  H         9.6642855222        8.4699720690       16.2103755882
  O         7.6898009991        7.1351395296       13.8176404662
  H         7.9578173809        6.9548437872       12.8765639589
  H         6.8146712146        6.6750362828       13.9446831491
  O         1.6480671537        4.6173182012       19.9496724941
  H         0.8372199111        4.1158868733       19.5529659911
  H         1.3773648039        4.8791032110       20.8102601052
  O         8.9926197765        7.2044104479       20.2258402787
  H         8.9905153159        7.9250081635       20.9516760243
  H         8.4048888637        6.5066727535       20.6273594331
  O         0.9265630084        4.7019112131       14.9779016704
  H         1.5812458123        4.0092519270       14.7413385349
  H         1.3611733599        5.5606970683       15.2333967169
  O         5.5593728482        3.3337482337       24.6225600591
  H         5.2363275183        3.2793396671       23.7168362264
  H         4.6986530437        3.5677430081       25.1800051628
  O         5.9470825712        0.3931126035       20.9638563690
  H         5.5350201481        1.2264049408       21.3039677609
  H         6.8334220929        0.3334447812       21.4320806498
  O         6.1757832123        0.5607156877       13.0936089109
  H         6.8332999426        8.7826822118       13.4379462805
  H         5.6913658283        0.1686800958       12.2956083950
  O         7.4891340268        5.0061544236       20.5783768642
  H         7.3386211296        5.2994627284       21.5086339315
  H         6.8345708776        5.4727660753       20.0333364572
  O         7.1349937361        3.9555074721       15.5149666713
  H         7.8424301876        4.3624695965       16.0912267389
  H         6.6040035692        3.4150979930       16.1538855724
  O         0.4591004145        1.1485452706       18.1145676482
  H        10.1146342537        1.8100079969       18.6205782337
  H        10.0469568539        0.4266618423       18.0174637664
  O         2.7656119283        7.2659589521       13.0488358554
  H         2.2814213110        6.6951146858       12.4356272087
  H         2.2569352527        7.3055731683       13.9088902203
  O         9.1544939896        3.2341263466       19.1691413498
  H         8.5287364842        3.6436632784       19.7704248578
  H         9.1076753061        3.7369358740       18.3206585258
  O         5.7804125326        6.7637279437       22.5141830657
  H         5.4666295615        7.6545407782       22.1833715995
  H         5.7232980047        6.7690207848       23.4802695436
  O         8.7985242287        7.6464009555       17.6436839250
  H         7.9750746926        8.1347201446       17.5143288521
  H         8.8050532657        7.6593931444       18.6981124575
  O         3.1776984462        2.6907661460       11.1635537894
  H         2.9773604320        2.8946674091       12.1040590973
  H         3.4543016529        3.5459657910       10.7799443036
  O         8.1934145225        2.4620636488       13.3028921403
  H         7.5311329971        1.7729662487       13.0262117532
  H         7.8214223986        2.9008093529       14.0945298989
  O        -0.1216893032        4.2566189859       11.4235433472
  H        -0.2252514339        3.5086124698       10.7808495391
  H        -0.0330501808        3.8998063167       12.3154636018
  O         3.8388428058        8.1059743197       17.0289833146
  H         3.5809213624        0.0430345715       17.6303040138
  H         4.5959953037        7.6468409296       17.5430362554
  O         6.8100346812        0.9128458681       18.5398672878
  H         6.6819216133        0.7805326249       19.5322322290
  H         7.4052512099        1.7200702281       18.5561198548
  O         4.3087274093        1.2714413964       15.0965446796
  H         5.0496625733        0.8756600379       14.5448781452
  H         4.0741520774        0.5072607746       15.6842631999
  O        10.0981302253        2.2411208848       22.0445379619
  H         0.8227862468        1.8636154344       21.9361293695
  H        10.1652294222        2.8289507701       22.7720465791
  O         1.8933099621        5.5262305386       23.1333642100
  H         2.1936981207        6.4847369523       23.1978859829
  H         2.5682963191        5.1018361146       23.7329771453
  O         1.9688331846        7.2244605400       15.5386602752
  H         1.2774689616        7.8761951086       15.6068266819
  H         2.7405084309        7.4080268641       16.1848951164
  O         8.3296013924        0.1103823300       22.0785565718
  H         8.4478744812       -0.2291469848       22.9783860147
  H         8.8783669174        0.9787521384       22.1573704964
  O         1.1603452771        2.4609343143       26.2846682801
  H         0.9657301228        1.5740476095       25.9521458508
  H         0.2478574736        2.9530308175       26.2535005054
  O         0.1730328301        1.1242109506       13.1504040257
  H        10.2289447761        0.7335877469       14.0415558983
  H         9.5198928565        1.6534134760       13.0791491971
  O         7.3924862134        1.3383826802       25.6644819168
  H         6.6453929676        1.9162224058       25.3317262611
  H         7.0911617945        1.1138765131       26.5999841375
  O         4.3120974905        5.2080735275       10.9382963596
  H         4.9239765783        5.8526630549       10.5447827268
  H         4.8737216968        5.0129517240       11.7438670759
  O         1.7304454110        6.2093032337       10.7377303653
  H         1.2213280120        5.3849244066       10.8486772381
  H         2.6628946016        5.8513290968       10.6118618011
  O         8.7021938977        7.9439231118       24.5391820893
  H         8.5128737593        6.9521565648       24.3226833925
  H         8.0938632174        8.3421338837       25.1853991856
  C         7.3251735172        2.2403441557        9.9139890753
  O         7.6774365677        1.2707014343       10.5905602368
  O         7.2361674073        3.5606747233       10.6860276686
  H         7.5080566482        3.3053190004       11.5834328496
