     224
 i =     1080, time =     1080.000, E =     -4021.4474763282
 Cu         0.0024540000        0.0078800000        1.7141800000
 Cu         1.2808500000        2.2199250000        1.7277410000
 Cu        -0.0507587578       -0.0757291263        8.1818102302
 Cu         1.1980380171        2.1176166077        8.0838710141
 Cu         1.1331728553        0.7958616619        5.8924689658
 Cu        -0.1275909482        2.8873738695        5.9307827102
 Cu         0.0033740000        1.4870630000        3.8189320000
 Cu         1.2823840000        3.7053060000        3.8078120000
 Cu         2.5589400000        0.0067290000        1.7092980000
 Cu         3.8391770000        2.2200140000        1.7320810000
 Cu         2.4693590917        0.0226135546        7.8712997034
 Cu         3.9299377317        2.2792607235        7.9276752046
 Cu         3.8163795265        0.7793540538        5.8836172047
 Cu         2.5390363232        2.9984100449        5.8256184939
 Cu         2.5574060000        1.4880370000        3.8156780000
 Cu         3.8393810000        3.7055710000        3.8156780000
 Cu         5.1146080000        0.0073490000        1.7109250000
 Cu         6.3954580000        2.2222270000        1.7372350000
 Cu         4.8601779112        0.0215241055        8.0560072935
 Cu         6.3309335030        2.2158783532        8.0043187196
 Cu         6.2658299549        0.6753587769        5.7367414054
 Cu         5.2280642150        2.9042286663        5.8706621795
 Cu         5.1138930000        1.4871510000        3.8173050000
 Cu         6.3999570000        3.7092900000        3.8224580000
 Cu         7.6702760000        0.0082340000        1.7158070000
 Cu         8.9519450000        2.2216070000        1.7326240000
 Cu         7.5970077624        8.9080905746        7.8344898122
 Cu         8.8473656367        2.1816793843        8.1385564454
 Cu         8.8443924405        0.7645103718        5.8313501870
 Cu         7.6875805799        3.0678270671        5.8777390139
 Cu         7.6719120000        1.4916670000        3.8202890000
 Cu         8.9542960000        3.7088470000        3.8143220000
 Cu         0.0016360000        4.4379910000        1.7128240000
 Cu         1.2819750000        6.6471140000        1.7261140000
 Cu        10.2397686887        4.4208169320        7.8137138014
 Cu         1.1217378384        6.6398341837        7.9898403106
 Cu         1.2139769375        5.3008433167        5.8642826855
 Cu        -0.0076541067        7.4310417783        5.7874274015
 Cu         0.0029650000        5.9166420000        3.8197460000
 Cu         1.2883140000        8.1312550000        3.8078120000
 Cu         2.5585310000        4.4337410000        1.7190620000
 Cu         3.8385630000        6.6445460000        1.7347930000
 Cu         3.7424102298        6.7410604915        7.7292674555
 Cu         3.8034663571        5.1301530641        5.7749105585
 Cu         2.3889212234        7.4512486045        5.9045243168
 Cu         2.5576110000        5.9146060000        3.8192040000
 Cu         3.8414260000        8.1322290000        3.8067270000
 Cu         5.1151190000        4.4341830000        1.7293690000
 Cu         6.3944360000        6.6463170000        1.7385910000
 Cu         2.4549047429        4.4880594744        7.9121609749
 Cu         6.2098303855        6.6505998569        7.9870406870
 Cu         6.3724711496        5.1852623499        5.8963522571
 Cu         5.1146720124        7.3661011225        5.8718462439
 Cu         5.1140970000        5.9151370000        3.8257130000
 Cu         6.3981170000        8.1359470000        3.8107960000
 Cu         7.6704810000        4.4362200000        1.7266570000
 Cu         8.9506150000        6.6487960000        1.7307250000
 Cu         7.6992903344        4.5480890671        7.9148331571
 Cu         8.8798735699        6.7339364029        7.9816372593
 Cu         8.8949744272        5.3007356504        5.7770197023
 Cu         7.5885344572        7.4402324168        5.9280188706
 Cu         7.6717080000        5.9204490000        3.8232720000
 Cu         8.9521490000        8.1351500000        3.8124230000
 Zn         4.9946298683        4.3440241369        8.1551647907
  O         0.2071826285        9.0987881953       11.1751838967
  H        -0.2441392245        0.4056170164       12.0989583588
  H         0.8720040639        8.4172555997       11.3447105024
  O         0.9684588442        8.5429012767       25.8072208398
  H         0.0557119044        8.2664562774       25.3552396391
  H         1.1252443158        7.9459605978       26.5335163052
  O         2.6735815339        7.6357387633       23.9671371936
  H         3.6574741982        7.6278118446       24.2699428085
  H         2.1068515721        8.0588753593       24.6194239820
  O         9.5955654175        4.4031864742       16.0319226519
  H        10.1556093496        5.1845171230       16.1773950402
  H         9.9923255090        3.9596345322       15.1683611675
  O         2.8439210338        0.8277783329       21.9991145781
  H         2.8930757436        0.3914835272       21.1072986332
  H         2.7611071305        0.0384041548       22.6324869814
  O         6.1256620782        6.7052823325        9.9704347473
  H         6.0238359261        5.8592393069       10.5511749254
  H         5.7659671909        7.5264793199       10.4583184278
  O         5.4650810372        5.6487061824       13.7486523353
  H         4.5523454524        5.9378772691       13.9451410749
  H         5.8338326615        5.0731601140       14.5113110158
  O         4.7335449545       -0.2396622836       11.2637460566
  H         4.3918172303        0.7445370839       11.1411512045
  H         3.9942881039        8.0206055991       11.6058998357
  O         8.8537885091        3.2164280589       26.3303017889
  H         8.0812851161        2.7566105480       25.9626668594
  H         8.4677109277        4.0291092496       26.6286924047
  O         9.0165785590        6.4016836113       11.4008096396
  H         9.5519015913        5.6130875810       11.3389667757
  H         9.3650490842        7.1664320993       10.9054078640
  O         3.1749491337        3.7503681819       25.2169282992
  H         3.5692574383        4.2957680928       25.8877843905
  H         2.4565115691        3.1753989042       25.6874150367
  O         5.0290613636        1.4561089231       17.8863577596
  H         5.9494588210        1.0148348208       18.0737144676
  H         4.8745685428        1.3458473752       16.8755335602
  O         2.5882875398        1.7845077394       13.6310559950
  H         3.1728622581        1.2985183407       14.2497020106
  H         1.6627566858        1.3496058924       13.7329172481
  O         6.7521726785        5.4907539741       25.5867008317
  H         6.4564788821        5.2074584345       26.5805670421
  H         6.6770996167        4.6755801151       25.1039707954
  O         5.5953634715        5.3965529323       18.1447817001
  H         4.9927268433        4.5931184251       18.5644008248
  H         5.9603301130        5.9030524008       19.0075001889
  O         3.0919103830        0.0036471918       19.2471577728
  H         2.1981643075        0.2731039098       18.9585662231
  H         3.7470843924        0.6206071993       18.8718118322
  O         1.4000397704        2.3344557018       10.1521849126
  H         2.3155394146        2.2453753178       10.4793114665
  H         0.8902723001        1.5005028862       10.5179084191
  O         9.7485124016        5.3217520312       24.0977184230
  H        10.7067562756        5.3686396838       23.9078375660
  H         9.5763905134        4.4111659896       24.4657192289
  O         5.2418992993        2.2277804174       21.5389852863
  H         4.3678300682        1.8053855180       21.7794931916
  H         4.7742897217        2.8293774338       20.9087040026
  O         5.1453190088        7.5511381374       24.6126447832
  H         5.1804767463        8.2691534375       25.3022495608
  H         5.5736085813        6.7477542615       24.9877081553
  O         3.8350617707        3.6912532964       19.5297194340
  H         2.9175584835        3.9219537542       19.9151065230
  H         3.8035451839        2.9152975160       18.9650960155
  O        10.1229038548        7.4728073627       14.9944943431
  H         9.3007956279        7.0017919470       14.7624667399
  H         9.9996538353        7.6701712133       15.9744736558
  O         7.7285889205        7.0281355436       13.6677278415
  H         8.2134540370        6.9698697182       12.7893601909
  H         6.9613588314        6.4202964702       13.6050318423
  O         1.5819605954        4.4263269609       20.5351594414
  H         1.3133270767        5.3189495271       20.1371478073
  H         1.6070844354        4.5977505642       21.4874803638
  O        10.0907522606        6.6753315429       19.8847245646
  H        10.3841309625        7.4993058291       20.3728721229
  H         9.4222808480        6.3057331187       20.5322797134
  O         1.0738226750        4.0744323762       13.9459963330
  H         1.7138654365        3.2952691896       13.8937713233
  H         1.6413003389        4.7411051852       14.4407333415
  O         5.8402810068        3.0949495975       24.2395184021
  H         5.7001816561        2.9162663458       23.2624527349
  H         4.9251177993        3.2831143476       24.6504233617
  O         7.2370322055       -0.2680313640       21.0834241867
  H         6.7675764821        0.5891902302       21.3373573203
  H         8.1492280222       -0.1890118498       21.4415804039
  O         5.8554130856        0.2509281042       13.6040040106
  H         6.5202048407        8.3492144906       13.7117323469
  H         5.5610755082       -0.0139536093       12.6723058505
  O         8.4797318318        5.0839720374       21.5390601184
  H         8.7530256504        5.1555282509       22.5404487926
  H         7.6080837479        5.4985000487       21.5122414628
  O         6.9288810376        4.5213316843       15.8297621109
  H         7.9310421107        4.6159859445       15.8319322161
  H         6.5396502835        5.0165432832       16.6524118222
  O         0.8808742546        1.3663720319       18.5334504865
  H        10.9166584520        2.1647844464       19.1279081062
  H        10.1736331902        1.0361336468       18.4799326844
  O         2.3467777276        7.4584316458       12.0368743781
  H         2.5474135837        6.6619776692       11.5185872290
  H         2.4215078018        7.2351342203       12.9984443025
  O         9.1720266997        3.5399755169       18.7224821703
  H         9.0838839719        4.2745527123       19.2844311991
  H         9.4490406467        3.7288362122       17.8234982549
  O         5.9539635020        6.4582141518       20.7316840901
  H         6.3230414493        7.3717866152       21.0316757674
  H         5.0016526826        6.4972568042       21.0401890933
  O         9.1708034947        7.3852210773       17.5138808204
  H         8.4045920684        8.0687847033       17.5659857018
  H         9.4895040951        7.1934933228       18.4092231203
  O         3.9242025884        2.1628832207       11.2303275479
  H         3.5626969767        2.0522060946       12.2164056715
  H         4.6698435590        2.7736615870       11.1916193507
  O         7.6254654809        2.3699410355       13.7531037939
  H         7.1168337459        1.5541391427       13.8528444098
  H         7.3491563072        3.0249562067       14.4075319505
  O         0.6319856812        4.5323954733       11.5069395672
  H         0.9544276790        3.7103726184       11.1031924350
  H         0.7203314488        4.4221845404       12.4408354359
  O         3.8507908264        7.1080438632       17.0107857935
  H         3.4659014241       -1.1987799844       17.7445066244
  H         4.6251771827        6.4596545566       17.4135283162
  O         7.6220909243        0.8519151645       18.5257144424
  H         7.4860295735        0.4355900439       19.4558843392
  H         7.9282519548        1.8066944866       18.5777492732
  O         4.0915781965        0.5357878105       15.4707599556
  H         4.8696007594        0.3481652627       14.7904304649
  H         4.0391717148       -0.2971625298       16.0345643140
  O        10.5441206706        2.2651424997       22.4308212152
  H         1.2990306807        2.0478921466       22.3343542304
  H        10.4510876478        2.7897761034       21.6079313371
  O         2.1724436595        5.0313271903       23.0390782026
  H         2.4199641810        5.9744532069       23.1552669644
  H         2.6105653049        4.5744318411       23.8021583428
  O         2.3755368754        6.2995976662       14.8972272939
  H         1.5688396311        6.8296470947       15.0294206423
  H         3.0489202699        6.4595747182       15.5470559409
  O         9.6337945579       -0.3011835658       22.0252155394
  H         9.5253999953       -0.6187117796       23.0108445854
  H        10.1828175490        0.5213142419       22.0751743870
  O         1.2123063714        2.3905321168       26.3882102232
  H         1.2641456707        1.4006134149       26.1256356912
  H         0.2916136649        2.7254383889       26.0991400994
  O        -0.1674636705        0.8995470602       13.6713068162
  H         9.9009531796        0.1140028066       14.2171976039
  H         9.3190499890        1.5463775549       13.7571690548
  O         6.9485199789        1.2177911626       25.8694730230
  H         6.4130026769        1.6236903715       25.2108326952
  H         6.5391612058        1.1130939303       26.7135784300
  O         5.8097934260        4.4063182493       11.1563497052
  H         6.8359716390        4.1359661130       10.6080494655
  H         6.0554754870        4.6457969459       12.0911704961
  O         3.3690290956        5.4764510230       10.6612109835
  H         2.7587410206        4.7702541596       10.5664230525
  H         4.2446982675        5.1286829896       10.9277249642
  O         9.0740460698        7.7152780755       24.6614514263
  H         9.1639114574        6.6504308833       24.8207398472
  H         8.2444467834        7.9330459968       25.1383330086
  C         7.6182447309        1.6145254197        9.5531718369
  O         7.4720996078        1.0558404747       10.5897368092
  O         7.8968296849        4.0250532522        9.9058661482
  H         8.8012424950        3.9195950192       10.2751440070
