     224
 i =     1445, time =     1445.000, E =     -4021.4903633274
 Cu         0.0024540000        0.0078800000        1.7141800000
 Cu         1.2808500000        2.2199250000        1.7277410000
 Cu         0.1244521982       -0.0891356907        8.0139468767
 Cu         1.6163676657        2.1911136172        8.2868792852
 Cu         1.2572749320        0.7026891501        6.0263010963
 Cu         0.0028023064        2.8933043574        5.9307031120
 Cu         0.0033740000        1.4870630000        3.8189320000
 Cu         1.2823840000        3.7053060000        3.8078120000
 Cu         2.5589400000        0.0067290000        1.7092980000
 Cu         3.8391770000        2.2200140000        1.7320810000
 Cu         2.6167463954       -0.0925495400        7.9110193313
 Cu         4.0024472893        2.1625100721        7.9937992821
 Cu         3.8949348781        0.7680562248        5.8053834854
 Cu         2.5971065290        2.9758779905        5.9386740273
 Cu         2.5574060000        1.4880370000        3.8156780000
 Cu         3.8393810000        3.7055710000        3.8156780000
 Cu         5.1146080000        0.0073490000        1.7109250000
 Cu         6.3954580000        2.2222270000        1.7372350000
 Cu         5.1755578468        0.0952496800        7.8850539426
 Cu         6.5845208721        2.0954866004        8.0349138377
 Cu         6.4683789195        0.7252212271        5.7658714026
 Cu         5.2043653141        2.9312382962        5.8047412419
 Cu         5.1138930000        1.4871510000        3.8173050000
 Cu         6.3999570000        3.7092900000        3.8224580000
 Cu         7.6702760000        0.0082340000        1.7158070000
 Cu         8.9519450000        2.2216070000        1.7326240000
 Cu         7.7937020666        8.6912469475        7.9333170061
 Cu         8.9683252812        2.2112580867        7.8641306382
 Cu         8.9246386500        0.7582680465        5.7960799180
 Cu         7.6418796144        2.9796604032        5.8848891604
 Cu         7.6719120000        1.4916670000        3.8202890000
 Cu         8.9542960000        3.7088470000        3.8143220000
 Cu         0.0016360000        4.4379910000        1.7128240000
 Cu         1.2819750000        6.6471140000        1.7261140000
 Cu        10.3822250556        4.3981014668        7.9482024185
 Cu         1.3232343676        6.6200918278        7.7954570149
 Cu         1.3197698659        5.1279361454        5.8466483286
 Cu        -0.1039443968        7.4245006405        5.8537731313
 Cu         0.0029650000        5.9166420000        3.8197460000
 Cu         1.2883140000        8.1312550000        3.8078120000
 Cu         2.5585310000        4.4337410000        1.7190620000
 Cu         3.8385630000        6.6445460000        1.7347930000
 Cu         3.8666331875        6.6656524173        7.9097636114
 Cu         3.8522391899        5.2347171507        5.7333076927
 Cu         2.6113053926        7.4830369084        5.7616888480
 Cu         2.5576110000        5.9146060000        3.8192040000
 Cu         3.8414260000        8.1322290000        3.8067270000
 Cu         5.1151190000        4.4341830000        1.7293690000
 Cu         6.3944360000        6.6463170000        1.7385910000
 Cu         2.8689470530        4.3946320087        7.9239230831
 Cu         6.4087880013        6.6372608058        8.1702027997
 Cu         6.3893319957        5.2783445202        5.8684695828
 Cu         5.1602137522        7.4930600831        5.9015176076
 Cu         5.1140970000        5.9151370000        3.8257130000
 Cu         6.3981170000        8.1359470000        3.8107960000
 Cu         7.6704810000        4.4362200000        1.7266570000
 Cu         8.9506150000        6.6487960000        1.7307250000
 Cu         7.6632906616        4.4182407863        7.8345952557
 Cu         9.0705496290        6.6044282261        8.0603929692
 Cu         8.9947812350        5.2198138533        5.8378882786
 Cu         7.6812203725        7.4206519202        5.9189741476
 Cu         7.6717080000        5.9204490000        3.8232720000
 Cu         8.9521490000        8.1351500000        3.8124230000
 Zn         5.1512834616        4.3645888029        7.9546215126
  O         0.5273776400        8.4038671322       11.1436411560
  H         0.1909702603       -0.0336591205       12.0110307332
  H         1.4401536064        8.0532678570       11.5913185750
  O         1.5661736328        8.2892207897       25.7028753592
  H         0.7201561335        7.8661035355       25.1881231290
  H         1.3712126165        7.6922636404       26.4988408664
  O         3.6754503074        7.3555539317       24.0006861821
  H         4.6407306620        7.4600209794       24.1993889107
  H         3.0679363601        7.7253782479       24.6034541789
  O         9.6831474380        4.5703957256       16.8262219015
  H         9.7905060409        5.5618624824       16.7946367642
  H        10.4320807167        4.2520104206       16.1723659106
  O         3.4217013824        0.4630584782       22.0876339072
  H         3.6358682406        0.1491551590       21.2060803475
  H         3.5033493909       -0.3331666652       22.6669113155
  O         6.1421012714        6.9122067699       10.0790135370
  H         5.6985451502        5.9342269255       10.6531747909
  H         5.5774686225        7.6347282276       10.4163620260
  O         5.8269691761        5.4590866027       14.2246549637
  H         5.5130490993        6.2641046950       14.7565880114
  H         6.4086520602        4.9429091058       14.8275425175
  O         4.8005393160       -0.0528414746       11.4373681445
  H         4.6862190219        0.9157068544       11.1155207253
  H         3.9548627927        8.5770710878       12.0291896440
  O         9.1296514177        2.8809460747       25.8104010399
  H         8.4053474480        2.1738192409       25.7832415362
  H         8.7935821456        3.4209395413       26.5823933903
  O         9.1949906708        6.3532912926       10.8307123258
  H         9.8621374129        5.5912624574       11.0289775330
  H         9.7696573704        7.2144949372       10.8788729738
  O         3.4871095904        3.4839301962       25.7714256350
  H         3.7146535464        4.0976214527       26.4756673886
  H         2.6607485967        2.9832235299       26.1505071025
  O         5.3524885977        2.0706879016       17.8189055097
  H         6.2188490383        1.7111799433       18.2399192781
  H         5.4641163892        1.5064176112       16.9565539186
  O         2.8596247253        1.8609077227       13.9725357043
  H         3.5325430449        1.3779393102       14.6301454994
  H         2.0020712626        1.3497465884       13.9182410871
  O         7.4846409894        5.4916907325       25.7005072801
  H         7.8414514566        5.4207756721       26.6244809294
  H         7.0946316306        4.6708144275       25.4915548431
  O         6.0141246733        5.4745964261       18.0239175390
  H         5.5410284209        4.5911856384       18.1473137487
  H         6.0696377657        5.8406209988       18.9765509161
  O         3.4372118957        0.1008672398       18.7568564006
  H         2.6312661233        0.4499088614       18.3616576796
  H         4.3027432048        0.7197471771       18.4950431562
  O         1.1177950516        1.9674793791       10.2109950531
  H         1.9970606002        2.2737672794       10.7380730759
  H         0.9003330582        0.9346627314       10.4403202916
  O         9.7204636252        4.8983396253       23.7557114386
  H        10.6876267516        4.8944156918       23.6318665862
  H         9.4695568384        4.3141682967       24.5184707336
  O         5.4499165006        2.3191174518       22.2408819677
  H         4.6797536982        1.7006227482       22.2009551654
  H         5.2570507515        2.8562240706       21.4423093884
  O         6.1639287643        7.6833389497       24.6035148682
  H         6.2853218454        8.4723726859       25.1693144070
  H         6.4207134026        6.9704620028       25.2630672545
  O         4.5302383654        3.5920208447       20.1212026867
  H         3.7058142570        4.1227434564       20.1267241619
  H         4.4846684002        3.0185330889       19.3114224699
  O        10.1217441276        7.3301201418       15.0367829875
  H         9.3832942895        6.9005743219       14.4594586399
  H         9.5759768077        7.4658722307       15.8185516931
  O         8.0311780824        6.7200942837       13.2963443031
  H         8.4077889844        6.4543838947       12.3671668903
  H         7.1968038238        6.2579018889       13.4686712612
  O         2.5795798604        5.6624229153       20.5684501261
  H         1.7401921762        5.9342708604       20.1320892016
  H         2.3880251535        5.3917348001       21.4790104323
  O        10.4602581734        6.8759655767       19.7242518742
  H        10.6488911023        7.6113704673       20.4017055918
  H         9.7860406163        6.3851562315       20.2416720215
  O         1.2789868472        3.9815671616       14.5638730778
  H         1.8746275348        3.1887148982       14.3069543870
  H         1.8700883313        4.7085041702       14.4569903645
  O         5.9130050219        3.1567418284       24.7383422388
  H         5.8045165368        2.9264938243       23.7850957037
  H         5.0238932957        3.1824917161       25.1415335580
  O         7.2592019478        0.1010686900       21.1680954825
  H         6.9325383399        0.9037534853       21.6655285037
  H         8.0735270326        0.0066488415       21.6463033645
  O         6.6395649292        0.2693879957       13.4673405156
  H         7.3041428438        8.3693369867       13.5656289753
  H         6.0813536866        0.1121216289       12.6236223380
  O         8.6561227842        5.2288775651       21.2590393929
  H         8.9025038872        5.1134362602       22.2257876896
  H         7.7112358353        5.5432238409       21.2963687344
  O         7.3370281958        3.5376120125       15.9070458318
  H         8.1581788116        3.9877276548       16.2822478778
  H         6.8900304052        3.2388795345       16.7066159599
  O         1.0919801012        0.9350301380       17.8767818606
  H        10.7679923211        1.7102951819       17.9880071798
  H        10.6749936752        0.2172216718       17.5878846551
  O         2.7231294111        7.7676125893       12.4279622288
  H         2.8520403992        6.9937925090       11.7479032723
  H         2.7913919315        7.3467380595       13.3411772445
  O         9.1885186605        3.2882379180       19.0801359581
  H         9.0860654488        3.7065462668       19.9666525650
  H         9.3545270611        3.9827428856       18.3524181419
  O         5.6156023731        6.6575150527       20.4401931757
  H         5.8346218761        7.4156530500       20.9496456651
  H         4.6747541946        6.6012753375       20.5990597385
  O         8.9880875427        7.8176162701       17.6429795294
  H         8.4289840530        8.5822350268       17.9088997491
  H         9.3967205444        7.4196484761       18.4605463982
  O         3.4103228966        2.5171084391       11.4630404479
  H         3.2102695226        2.3531364086       12.4731836889
  H         4.1344901137        3.1852061873       11.5445723308
  O         8.7109644656        1.8397072330       14.2048120732
  H         7.8747937414        1.5070089908       13.7747707302
  H         8.3421713859        2.4792237839       14.8891172869
  O         0.4177557654        4.0981772468       11.5611673441
  H         0.2794034865        3.2374637864       11.0775625915
  H         0.5900876425        3.7643150370       12.5025573285
  O         4.3035825760        7.2355273730       16.7078880577
  H         3.8993836243       -1.0924691039       17.4875328805
  H         4.9321199144        6.6020698239       17.2361473395
  O         7.5566230608        1.0638108146       18.7052291574
  H         7.4601919545        0.6112768516       19.6395938131
  H         8.1133793524        1.8401759714       18.8952056559
  O         4.9735631392        0.7205842005       15.4704925960
  H         5.5624988879        0.7293437990       14.6667199012
  H         4.9463398726       -0.1471656419       15.9247830935
  O        11.3207069015        2.4523819522       21.8586549056
  H         1.9140613613        1.8837599528       21.9234232326
  H        11.3057679002        2.6519674141       20.8635290776
  O         2.1157443229        5.2536883431       23.4585395798
  H         2.7857435310        5.9335783087       23.5889278633
  H         2.4892141923        4.4553784916       23.8458802595
  O         2.5238533073        6.5987071709       14.7341860066
  H         1.5838905331        6.9269670255       14.8409970410
  H         3.0807074912        7.0131533008       15.4321753244
  O        10.0184155087       -0.0335475097       21.9341221749
  H        10.0573991831       -0.3552322693       22.8774021185
  H        10.3913556866        0.8986582864       21.9753718185
  O         1.1086442524        1.8049049482       26.6607741952
  H         1.2158595361        0.9064040758       26.3086659135
  H         0.1967518931        2.1386759963       26.3503495308
  O         0.5537681903        0.7046326927       13.5678952285
  H        10.7141774240       -0.1092639587       14.1173337955
  H         9.9403106516        1.2905451762       13.8546672216
  O         6.9630278057        1.1490719396       25.6983234506
  H         6.3943632785        1.9360673408       25.3720555837
  H         6.7813685187        1.0877893202       26.6734944598
  O         5.0480220857        4.9041888645       11.2405062008
  H         6.8332365969        3.9101931421       10.2920945188
  H         5.1333161754        5.0090795326       12.2021816870
  O         2.7928394420        5.8603469441       10.5385247813
  H         2.1407763810        5.1882829461       10.7311170425
  H         3.7179207028        5.3982915104       10.9330342859
  O         9.4867686948        7.4113091444       24.6329272639
  H         9.5679955359        6.4230847430       24.4048378972
  H         8.6347334119        7.4068920047       25.1224928284
  C         7.9286004074        1.4121014261        9.3987816201
  O         7.8437631688        1.0470113559       10.5531646993
  O         7.7326154325        4.1497363152       10.0334693297
  H         7.9826741142        4.9965001434       10.3911548441
