     224
 i =     1260, time =     1260.000, E =     -4021.5019663227
 Cu         0.0024540000        0.0078800000        1.7141800000
 Cu         1.2808500000        2.2199250000        1.7277410000
 Cu         0.0763210001       -0.1459576322        7.8213473296
 Cu         1.2376286359        2.1055133656        8.0346384024
 Cu         1.2597497447        0.5925248768        5.8463551119
 Cu        -0.0218809876        2.9029643957        5.9192798518
 Cu         0.0033740000        1.4870630000        3.8189320000
 Cu         1.2823840000        3.7053060000        3.8078120000
 Cu         2.5589400000        0.0067290000        1.7092980000
 Cu         3.8391770000        2.2200140000        1.7320810000
 Cu         2.6105084390       -0.0459085397        7.8993832790
 Cu         3.8296453652        2.1023499160        7.9009648667
 Cu         3.9001211277        0.6905511600        5.7514777444
 Cu         2.5974644438        2.8567632458        5.8087670402
 Cu         2.5574060000        1.4880370000        3.8156780000
 Cu         3.8393810000        3.7055710000        3.8156780000
 Cu         5.1146080000        0.0073490000        1.7109250000
 Cu         6.3954580000        2.2222270000        1.7372350000
 Cu         5.0682558177       -0.0720252897        7.8905071290
 Cu         6.3442393419        2.1152797511        7.9962857381
 Cu         6.3904758715        0.5906285979        5.7534624609
 Cu         5.2660429698        2.7796632747        5.7962163831
 Cu         5.1138930000        1.4871510000        3.8173050000
 Cu         6.3999570000        3.7092900000        3.8224580000
 Cu         7.6702760000        0.0082340000        1.7158070000
 Cu         8.9519450000        2.2216070000        1.7326240000
 Cu         7.7116979131        8.9240324505        8.0703776538
 Cu         8.9224868990        2.1629322720        7.8779794237
 Cu         8.8324210018        0.6875563990        5.8247544687
 Cu         7.6356313538        2.9241213240        5.8671124537
 Cu         7.6719120000        1.4916670000        3.8202890000
 Cu         8.9542960000        3.7088470000        3.8143220000
 Cu         0.0016360000        4.4379910000        1.7128240000
 Cu         1.2819750000        6.6471140000        1.7261140000
 Cu        10.1624674614        4.4268191741        7.8822456121
 Cu         1.3561564914        6.5840692944        7.9361152820
 Cu         1.3081419824        5.1434855664        5.8808280693
 Cu        -0.0022422563        7.2807573831        5.7630149146
 Cu         0.0029650000        5.9166420000        3.8197460000
 Cu         1.2883140000        8.1312550000        3.8078120000
 Cu         2.5585310000        4.4337410000        1.7190620000
 Cu         3.8385630000        6.6445460000        1.7347930000
 Cu         3.8663577949        6.5744728432        8.1293467961
 Cu         3.8945421384        5.1562716204        5.8295624135
 Cu         2.6564787348        7.3443620927        5.9335678979
 Cu         2.5576110000        5.9146060000        3.8192040000
 Cu         3.8414260000        8.1322290000        3.8067270000
 Cu         5.1151190000        4.4341830000        1.7293690000
 Cu         6.3944360000        6.6463170000        1.7385910000
 Cu         2.6589231239        4.3856074110        7.9390961308
 Cu         6.5717372241        6.5870280050        7.9918045958
 Cu         6.4734562633        5.1109653696        5.8942896843
 Cu         5.1222732873        7.1784002929        5.9299463604
 Cu         5.1140970000        5.9151370000        3.8257130000
 Cu         6.3981170000        8.1359470000        3.8107960000
 Cu         7.6704810000        4.4362200000        1.7266570000
 Cu         8.9506150000        6.6487960000        1.7307250000
 Cu         7.6854773007        4.2982225290        8.2088557245
 Cu         8.9728583635        6.6757389002        7.8924532811
 Cu         8.9323270408        5.1697991833        5.8567512208
 Cu         7.7542115331        7.4310992804        5.9716783729
 Cu         7.6717080000        5.9204490000        3.8232720000
 Cu         8.9521490000        8.1351500000        3.8124230000
 Zn         5.0616956464        4.3554240347        7.9109531609
  O         0.6415079596        8.8761141607       11.3949960710
  H         0.2935848466        0.3181483138       12.3128509853
  H         1.5389113922        8.5047596454       11.6082418768
  O         1.6242865599        8.4719433393       25.7443284556
  H         0.6114345489        8.2097113675       25.5913476954
  H         1.9493642634        7.8911328677       26.5592853091
  O         3.2368662890        7.9640919498       23.7291155123
  H         4.1388979130        7.9752646878       24.0937240256
  H         2.7096913277        8.4617549113       24.4921376716
  O         9.6497817710        4.4328019401       16.4873644813
  H        10.0318123432        5.3438591957       16.5083421497
  H        10.1672686878        4.0454367661       15.7081546647
  O         3.1935232307        0.6496574448       21.5607880375
  H         3.3820858659        0.1999840330       20.6190595349
  H         3.3219692744       -0.0241972594       22.3047120305
  O         6.3186071128        6.7181596367        9.9276213066
  H         5.8467131734        5.8444570320       10.5455643685
  H         5.9664221704        7.5416171182       10.2187361584
  O         5.6659828108        5.0220506061       13.7756750591
  H         5.0135143020        5.7680466827       14.0281740980
  H         5.8356512226        4.5820696382       14.6431669183
  O         5.1678960585       -0.0284468766       11.2135273925
  H         4.7777138202        0.8506695812       10.8419351950
  H         4.3237449675        8.3763855765       11.3741149883
  O         9.4602518745        3.3215748531       25.7158508180
  H         8.8216481434        2.5542247191       25.6765140514
  H         9.2361738094        4.0057781044       26.4017900830
  O         9.2879820669        6.4925005602       10.6742601147
  H         9.8395834531        5.6700926234       10.7181627731
  H         9.9610434138        7.1877372416       10.6356618922
  O         3.2998139012        4.3434599080       25.8407728601
  H         3.7865912037        4.5484584684       26.6482116108
  H         2.7790765627        3.5051944168       26.1112370975
  O         4.8694182002        1.2518908323       18.1453669724
  H         5.9045672227        1.0308643436       18.2583466453
  H         4.7059146272        1.1508792234       17.2002359580
  O         2.6794941430        1.7378513143       13.9522746070
  H         3.3998318428        1.1413071900       14.2784129070
  H         1.8257325289        1.1898781974       13.9675715439
  O         6.7182763023        5.5763962854       25.4986765342
  H         6.2582661622        5.7819487005       26.4110760637
  H         6.2823086185        4.8223435662       25.0885691272
  O         5.5575746343        5.3497967127       18.2340954062
  H         5.0416803189        4.6452683655       18.7525343198
  H         6.1066965009        5.7807544347       19.0001548027
  O         3.1879891312       -0.2373183641       19.1654904213
  H         2.3283043045        0.1830122992       18.9431864861
  H         3.8453199521        0.3905198753       18.7264386000
  O         1.4024657257        2.1890377890       10.1210490404
  H         2.4268768527        2.3545465527       10.4299410260
  H         1.0471471398        1.3576559935       10.5879409082
  O         9.3713657590        5.5445688841       23.3834571067
  H        10.3398941956        5.7352943237       23.2500716467
  H         9.4081506596        4.8527849497       24.0918004459
  O         5.1742506391        2.2186063034       22.1266820366
  H         4.4070186734        1.5255453448       22.0400171067
  H         5.1768149546        2.5740838267       21.2150891803
  O         5.7887545174        8.0068088921       24.6496986877
  H         6.2731361892        8.7271080852       25.1458297294
  H         6.0443568688        7.1504564211       24.9801521400
  O         4.6744280119        3.3868920610       19.7670876773
  H         3.8769078082        3.8380282329       20.1133059890
  H         4.4753876828        2.6688458779       19.0569654248
  O         9.7088330816        7.4236561679       15.5703414104
  H         8.9671299830        7.1112191136       14.9779164497
  H         9.3864634470        7.7834868854       16.4294571832
  O         8.0505293000        6.6827914844       13.4327775373
  H         8.5051071924        6.7953269154       12.5416954792
  H         7.5108954437        5.8478067974       13.4103764576
  O         2.3755454591        4.5676360137       20.6615088792
  H         1.7550101912        5.1612151018       20.1696867619
  H         2.2552624656        4.8558523033       21.6320056897
  O        10.1960601256        6.4564725053       20.2836981679
  H         9.9877408396        7.0791067384       21.0283805469
  H         9.4910677545        5.7392534695       20.3146101240
  O         1.3120764429        4.0337129016       14.3893872847
  H         2.0126760463        3.2876143712       14.3909595440
  H         1.8121581021        4.8919672415       14.3928825039
  O         5.5282552857        3.1698554836       24.6967672550
  H         5.3552262370        2.9395712989       23.7424062616
  H         4.5971536628        3.4020501751       25.0207019526
  O         6.8010146587        0.2483309886       21.1138402085
  H         6.3395303364        1.0024335635       21.6214534945
  H         7.7131253395        0.0884757676       21.4372957408
  O         6.5881648304        0.0846088219       13.4672766270
  H         7.0297946415        8.0470802682       13.4354139873
  H         6.0654451400        0.1760134030       12.6474138756
  O         8.3491111077        4.4985955266       20.6611694399
  H         8.6287215027        4.6546081089       21.5786419106
  H         7.5710152477        5.0969690208       20.5952776176
  O         6.6479683302        4.2041646522       16.0574839164
  H         7.6176524786        4.4557213719       16.1188334585
  H         6.2917540092        4.5432129831       16.9252552709
  O         1.2613433116        1.2124264031       18.0487441043
  H        10.8534654788        1.9620319775       18.2443981373
  H        10.8968756792        0.4171472772       17.9757371078
  O         3.0133223144        7.3618470003       11.8920122079
  H         2.8811456974        6.6252809107       11.2378027672
  H         2.7603815197        7.0332213180       12.7671627025
  O         9.3747704648        3.0173373355       18.6697214124
  H         9.0975427942        3.5509284626       19.4395041501
  H         9.3460323655        3.6654221305       17.9333659567
  O         6.3029064844        6.2502675007       21.1103476854
  H         6.4287165299        7.1875647170       21.2597312352
  H         6.0424277317        5.8180805608       21.9235171303
  O         9.5022513407        8.0204520279       18.1824140727
  H         8.8607587442        8.6136675599       18.6422397630
  H         9.8519957061        7.3302804957       18.9036334170
  O         3.8751867006        2.2921344906       11.0378055557
  H         3.6611115927        2.0072099306       11.9281333934
  H         4.6315561382        2.8712754166       11.0414057112
  O         7.9241475026        2.4981056475       13.9501824435
  H         7.3766875736        1.6983457882       13.8109631201
  H         7.6634281356        2.7670612361       14.8471531449
  O         0.8406448358        4.3991933266       11.2796561982
  H         0.7169648056        3.4786794687       10.8928912258
  H         0.9197425276        4.3112919862       12.2223032073
  O         3.5359866949        6.8312898358       17.0680192269
  H         3.4564000508       -1.3632091469       17.7863709996
  H         4.3253711077        6.1757323285       17.3700120503
  O         7.4739212795        0.9700865928       18.6875451868
  H         7.2165773013        0.8437901865       19.6856987308
  H         7.9229849655        1.9167671533       18.7204304368
  O         4.4743639947        0.2820088794       15.4445260326
  H         5.2772648240        0.1241724380       14.8586903968
  H         4.3091006572       -0.6251564574       15.9245244120
  O        11.0294152146        1.5946687600       22.0466695607
  H         1.6117530330        1.0319628915       21.8431735566
  H        11.1917563664        2.4148421381       21.5556957634
  O         1.9918686040        5.5933968030       23.4603921608
  H         2.4404973235        6.4139033956       23.7157396256
  H         2.2482881073        4.9099382231       24.0992272538
  O         2.2743790842        6.6747678902       14.4817495517
  H         1.5516451553        7.1907717176       14.8701863396
  H         2.7424561253        6.6360870069       15.3061360027
  O         9.3345879575       -0.3500316497       22.0732148468
  H         9.2196276099       -0.5639578156       22.9897182969
  H         9.8921436274        0.5789149755       22.0459256036
  O         1.5064517118        2.1799628600       26.4780536385
  H         1.5532011352        1.2137083597       26.2461495913
  H         0.6795465110        2.5415875823       26.1051968813
  O        -0.1319197034        0.6951107337       13.8650273242
  H        10.0544444553       -0.0662064215       14.5246178863
  H         9.4001259950        1.3628763651       14.1657521378
  O         7.3488316863        1.3042479555       25.6093606072
  H         6.5743138092        1.8748232218       25.3517225345
  H         7.3501168826        1.1328951665       26.6112151607
  O         5.3871893681        4.7310752111       11.0947692355
  H         6.8467290060        4.1983969408       10.6806502418
  H         5.4822292153        4.6415107319       12.0683605846
  O         3.1453407987        5.3855437503       10.1086623649
  H         2.3539762761        4.9090792759       10.4967825111
  H         4.0704857252        4.9801597988       10.5558426718
  O         9.2209111154        7.9014654180       24.8253051237
  H         8.8750846390        6.9632801502       24.9818866786
  H         8.7311920922        8.5052825122       25.4637110045
  C         7.5103585114        1.6073520285        9.4052219095
  O         7.7650714799        1.5769094638       10.5783386698
  O         7.7428937371        4.0734704443       10.2951543860
  H         8.1763722711        4.9588540852       10.3868282931
