     224
 i =      345, time =      345.000, E =     -4021.4806385459
 Cu         0.0024540000        0.0078800000        1.7141800000
 Cu         1.2808500000        2.2199250000        1.7277410000
 Cu        -0.0291201342       -0.0686639120        7.9319915351
 Cu         1.2687303247        2.2623704015        8.2321266606
 Cu         1.2423352879        0.8676430647        5.9962426987
 Cu        -0.0246235554        3.0076574516        5.9357654934
 Cu         0.0033740000        1.4870630000        3.8189320000
 Cu         1.2823840000        3.7053060000        3.8078120000
 Cu         2.5589400000        0.0067290000        1.7092980000
 Cu         3.8391770000        2.2200140000        1.7320810000
 Cu         2.5021077253       -0.0690570111        7.9880398114
 Cu         3.7120975272        2.2363976748        7.9288904756
 Cu         3.7370828912        0.7468178787        5.9181633567
 Cu         2.3672629069        3.0590026790        5.8515466527
 Cu         2.5574060000        1.4880370000        3.8156780000
 Cu         3.8393810000        3.7055710000        3.8156780000
 Cu         5.1146080000        0.0073490000        1.7109250000
 Cu         6.3954580000        2.2222270000        1.7372350000
 Cu         5.0547128231        0.0757844215        7.8036902326
 Cu         6.2659294732        2.0410320130        8.0099182639
 Cu         6.3912792472        0.7523184362        5.7853630305
 Cu         5.1888134579        3.0012520462        5.9561158589
 Cu         5.1138930000        1.4871510000        3.8173050000
 Cu         6.3999570000        3.7092900000        3.8224580000
 Cu         7.6702760000        0.0082340000        1.7158070000
 Cu         8.9519450000        2.2216070000        1.7326240000
 Cu         7.7002701919        8.8312244215        7.8683390186
 Cu         8.9590384759        2.2876849869        7.8964165630
 Cu         8.9516757151        0.7663945091        5.8416756681
 Cu         7.6526505341        2.9443133716        5.9429914075
 Cu         7.6719120000        1.4916670000        3.8202890000
 Cu         8.9542960000        3.7088470000        3.8143220000
 Cu         0.0016360000        4.4379910000        1.7128240000
 Cu         1.2819750000        6.6471140000        1.7261140000
 Cu        10.3303845689        4.4089418082        7.9907880648
 Cu         1.3010313448        6.6067804138        8.2385834381
 Cu         1.2739281979        5.3066486073        5.9719033645
 Cu         0.0324702426        7.4286033937        5.8385618848
 Cu         0.0029650000        5.9166420000        3.8197460000
 Cu         1.2883140000        8.1312550000        3.8078120000
 Cu         2.5585310000        4.4337410000        1.7190620000
 Cu         3.8385630000        6.6445460000        1.7347930000
 Cu         3.8628074295        6.6526993759        7.9416606312
 Cu         3.8442077895        5.1314688249        5.7736297458
 Cu         2.5067676822        7.4617188572        5.9609491013
 Cu         2.5576110000        5.9146060000        3.8192040000
 Cu         3.8414260000        8.1322290000        3.8067270000
 Cu         5.1151190000        4.4341830000        1.7293690000
 Cu         6.3944360000        6.6463170000        1.7385910000
 Cu         2.5791146412        4.4753462125        7.9939625792
 Cu         6.4523936774        6.6562218343        7.9621177910
 Cu         6.4396644821        5.1494936013        5.9099909899
 Cu         5.1291772034        7.3788351455        5.7327847096
 Cu         5.1140970000        5.9151370000        3.8257130000
 Cu         6.3981170000        8.1359470000        3.8107960000
 Cu         7.6704810000        4.4362200000        1.7266570000
 Cu         8.9506150000        6.6487960000        1.7307250000
 Cu         7.6774941721        4.3442759980        8.1072372806
 Cu         8.9509541183        6.6861327708        7.8203306398
 Cu         8.9867337398        5.1162307328        5.9287292507
 Cu         7.6770626328        7.3672512712        5.9483721073
 Cu         7.6717080000        5.9204490000        3.8232720000
 Cu         8.9521490000        8.1351500000        3.8124230000
 Zn         5.1429690034        4.4141013142        7.9492976922
  O         0.3311235646        9.0084077870       11.2393891467
  H         0.0035187150        0.3577717513       12.1445968800
  H         1.0807116220        8.3894190061       11.3506192263
  O         0.7018949993        8.6271479234       25.7519836991
  H        -0.2681081458        8.2575044455       25.4950207688
  H         0.9176123873        8.2698364621       26.6411803306
  O         2.1077598880        7.6628341462       23.5408539475
  H         2.9719838181        7.7328654934       24.0123616749
  H         1.5146508987        8.0299636284       24.1781283340
  O         8.7723502063        5.3024191371       16.7791166011
  H         8.9216032396        6.2051788859       17.1752342700
  H         9.4548591511        5.1633661076       16.0603206618
  O         2.8285238154        0.9976813413       21.7227367547
  H         2.6977563954        0.6739592689       20.8346011726
  H         2.6799927568        0.0914300050       22.1890831700
  O         6.3012062828        6.7041165934       10.0307245971
  H         7.2919698003        6.7783792685       10.2143712704
  H         5.7662726444        7.4352961942       10.4870514816
  O         5.3520189494        5.8279753657       13.7847257183
  H         4.6839385086        6.5921223885       13.7136272007
  H         5.4624015829        5.4254151848       14.6936581777
  O         4.4767682195       -0.3373239392       11.0154247081
  H         4.5195066594        0.5862012525       10.7340558330
  H         4.0665173277        8.6620811038       11.8920945927
  O         9.0222249672        3.5757507867       25.7823782907
  H         8.3248858837        2.8730188499       25.7660382861
  H         9.0085929370        4.0521625387       26.6770597093
  O         8.8069983860        6.7737758160       10.8757867686
  H         9.3577861685        5.9462151118       11.1324612716
  H         9.3572822425        7.6179736835       10.8258829860
  O         2.4996172136        4.2979092576       24.9282996177
  H         2.7907704816        5.0895015279       25.4534667131
  H         2.2995709096        3.5898288160       25.6049620010
  O         5.2194965855        2.6972085548       17.2271178472
  H         5.9599262908        2.2051380550       17.6952374624
  H         4.9133193300        2.0366612783       16.4989674736
  O         2.1482431834        2.4046705328       13.9368983862
  H         2.7303743479        1.8945302089       14.5169166444
  H         1.2547529423        1.9037814285       13.8806337064
  O         6.4963583486        5.3789651416       25.3731893855
  H         6.6987619857        5.0852588842       26.3160663152
  H         5.9924292208        4.6377058968       24.9181243602
  O         5.9915021388        6.4546488696       18.9403389985
  H         5.3649545449        5.7442556520       19.1666552111
  H         5.7513366662        7.2384707771       19.4396285307
  O         3.0247010323        0.6133224481       19.0035110118
  H         2.1123295377        0.7788127020       18.5694758434
  H         3.5338013573        1.4896647453       18.9012255180
  O         1.3301516453        2.4930165299       10.3311454509
  H         2.3154565560        2.6436631856       10.6997716403
  H         1.0630546943        1.7040893506       10.8530934565
  O         8.9734352780        5.3882232049       23.4261345265
  H         9.9288039863        5.1494199479       23.2689182361
  H         8.7265809896        4.9450676083       24.2834406720
  O         5.0343297780        2.6515824765       21.6233365763
  H         4.1797579652        2.1111119799       21.7587713764
  H         4.9583583148        3.0589282205       20.7093361702
  O         4.0537639081        6.7875356582       25.5831430226
  H         4.1480116696        6.9963025364       26.5411160117
  H         4.9134329423        6.3720826771       25.2803866381
  O         4.6646268827        4.0181901977       19.3144114340
  H         3.6763126127        4.1765372811       19.4517580026
  H         4.6627870027        3.5541791437       18.3873030498
  O         9.4982131905        7.9971116970       15.2827746561
  H         8.8006037673        7.4042764636       14.9107645531
  H         9.1632371368        8.2211898579       16.2180179205
  O         7.7324025604        7.0425098284       13.4528413765
  H         8.0741614571        6.8363311285       12.5231874439
  H         6.9830398243        6.3905582384       13.5166700020
  O         2.0347948925        3.8237827771       20.4574275150
  H         1.0964516950        3.7656401573       20.1040145436
  H         1.7544129949        4.3707639985       21.2320620529
  O         9.6213252216        6.7414947900       20.3648221112
  H         9.4086469574        7.5862621808       20.8457325549
  H         8.9827651375        6.0660739315       20.7055801390
  O         0.4314775071        4.6298036306       14.4083183599
  H         1.0651770430        3.8552384695       14.6308623938
  H         0.9718886154        5.4610090359       14.5587856523
  O         5.0054559513        3.3979950320       24.1858296786
  H         5.1048334964        3.2498082120       23.1632666972
  H         4.0441192630        3.6454851883       24.3526182754
  O         6.1433481497        0.3703584894       20.8321588064
  H         5.9172266339        1.2330445768       21.2924794673
  H         7.0988026992        0.3864566253       21.0864464787
  O         6.5998859228        0.6340388865       13.7443842420
  H         6.8989841165        8.6180278231       13.3993278433
  H         6.3045017698        1.0068454816       12.8728609259
  O         7.7922286780        4.3457349459       21.0361116621
  H         8.3150220097        4.6108193250       21.8469676712
  H         6.9260926370        4.7340411717       21.1927855988
  O         6.2782205181        4.6625030527       15.8322694895
  H         7.0347939505        5.1699301390       16.1574597252
  H         6.0218922292        3.9020674788       16.3930135576
  O         0.6023563200        1.2648948384       17.9336295856
  H        10.4660129884        2.0561765781       18.3758584727
  H        10.2655776567        0.4832918317       18.1136773418
  O         3.3334380789        7.6838109182       13.2248685038
  H         2.9503872190        7.1403679789       12.4856846616
  H         2.6438444384        7.6749373578       13.9335422788
  O         9.0577897844        3.1756118973       18.7308064551
  H         8.5859877218        3.6768028553       19.4921821619
  H         8.9279727319        3.8504143697       17.9633394812
  O         5.7505162534        6.1761822529       22.5638692948
  H         5.9981709234        7.1189157380       22.3865581404
  H         6.3841280448        5.9822194290       23.2769874955
  O         9.0759500286        7.9617750057       18.1884684279
  H         8.2097484276        8.4223218836       18.3206837780
  H         9.2955052824        7.4240009701       18.9981560228
  O         3.5376814159        2.5455738456       11.4789278540
  H         3.2017265701        2.5434199901       12.4389457979
  H         4.1169793943        3.3845109427       11.4804858873
  O         7.9586753331        3.4302716673       13.1628581272
  H         7.1872502650        2.8463883766       13.3430849987
  H         8.0103291683        4.0453316343       14.0077248809
  O         0.2975213374        4.7231827917       11.5105826833
  H         0.5316024419        3.8676597430       10.9970942423
  H         0.3244298991        4.4496689660       12.5087257048
  O         3.6352768670        7.7728229310       17.1147555592
  H         3.5447524143       -0.5514071782       17.9293493612
  H         4.3989392081        7.1513319680       17.2609785219
  O         6.9910420929        1.2079252253       18.4504070286
  H         6.5510103473        1.1011421310       19.3681710954
  H         7.6082628087        1.9869630660       18.4898607087
  O         4.3942651023        0.8903846851       15.4165979528
  H         5.0522847946        0.4447329561       14.8438952174
  H         4.1123841826        0.2421577987       16.1487244380
  O        10.2258773019        2.2672249077       21.8946663971
  H         0.9885840816        2.0441838771       21.9226921739
  H        10.0532493629        2.7195144121       22.7361581616
  O         1.4162627678        5.2545970922       22.7925887907
  H         1.6324804302        6.1981777182       22.9933829893
  H         1.9054617779        4.8259370019       23.5471946469
  O         1.7703699299        6.7861996867       15.1350792061
  H         0.8871174110        7.2746942664       15.3137819716
  H         2.3414435136        7.1544896298       15.8465838478
  O         8.7412829012       -0.0247944414       21.8853410020
  H         8.4148413399       -0.2986375486       22.7748489217
  H         9.2454835031        0.7870460143       21.8438174697
  O         1.1777947502        2.2748697006       26.6027731990
  H         1.1705753428        1.3199655545       26.2783161900
  H         0.2890117157        2.6440104207       26.2631058901
  O        -0.2877346010        1.1246445123       13.5494716285
  H         9.5738783661        0.4662131204       14.2477893682
  H         9.3345611202        1.9454324467       13.5767250014
  O         6.9618362323        2.0097089136       25.5544238390
  H         6.2407062434        2.4811083831       24.9700666095
  H         6.4752321673        1.6829096185       26.3924777300
  O         4.3804065570        5.1923214365       11.2847782362
  H         4.9459585608        5.2293892246       10.4762136284
  H         4.9139125629        5.1315051291       12.1037379232
  O         1.8239894731        6.6899678646       10.7008284017
  H         1.2304601487        5.9483198761       11.0689823243
  H         2.6574786339        6.2198914561       10.5424524351
  O         8.6247284718        7.9667211825       24.5278760850
  H         8.4834066732        7.0561488155       24.2006834150
  H         7.8867298135        8.2810901235       25.0724691393
  C         6.9810534002        2.1291393738        9.8263110141
  O         6.9534615274        1.5608166253       10.8488617043
  O         7.2586702805        3.8193898887        9.9459414853
  H         7.7724204813        3.9705860716       10.7595409040
